 *******************************************************************************
 **                                                                           **
 **                              MOPAC v22.0.6                                **
 **                                                                           **
 *******************************************************************************
 **          Digital Object Identifier (DOI): 10.5281/zenodo.6511958          **
 **    Visit the DOI location for information on how to cite this program.    **
 *******************************************************************************

                              PM7 CALCULATION RESULTS

 *******************************************************************************
 *  CALCULATION DONE:                                Thu Apr 13 11:25:40 2023  *
 *  START_RES  - STARTING RESIDUE NUMBERS DEFINED
 *  Keyword:     START_RES=(7A 300) 
 *  GEO_DAT    - DATA SET GEOMETRY IS IN FILE "Bacteriorhodopsin_1AP9.ent"
 *  CHAINS     - PDB CHAIN LETTERS EXPLICITLY DEFINED
 *  Keyword:     CHAINS=(A) 
 *  ADD-H      - ADD HYDROGEN ATOMS TO SATISFY VALENCE
 *  T=         - A TIME OF 172800.0 SECONDS REQUESTED
 *  DUMP=N     - RESTART FILE WRITTEN EVERY 7200.0 SECONDS REQUESTED
 *  HTML       - WRITE HTML SCRIPT TO READ PDB FILE USING JSMOL
 *******************************************************************************
 START_RES=(7A 300)  CHAINS=(A) geo_dat="Bacteriorhodopsin_1AP9.ent" ADD-H HTML
 Hydrogenate 1AP9

   ATOM                 CHEMICAL                   X               Y               Z
  NUMBER                 SYMBOL               (ANGSTROMS)     (ANGSTROMS)     (ANGSTROMS)

     1       N(ATOM      1  N   ARG A   7)   22.95200000  *  32.41500000  * -14.49200000  *
     2       C(ATOM      2  CA  ARG A   7)   23.93200000  *  31.31300000  * -14.76400000  *
     3       C(ATOM      3  C   ARG A   7)   25.12900000  *  31.38300000  * -13.80700000  *
     4       O(ATOM      4  O   ARG A   7)   25.44200000  *  30.40400000  * -13.13200000  *
     5       C(ATOM      5  CB  ARG A   7)   24.38900000  *  31.36100000  * -16.23100000  *
     6       C(ATOM      6  CG  ARG A   7)   25.28200000  *  30.22200000  * -16.66100000  *
     7       N(ATOM      7  N   PRO A   8)   25.80000000  *  32.54900000  * -13.71700000  *
     8       C(ATOM      8  CA  PRO A   8)   26.95000000  *  32.65600000  * -12.80800000  *
     9       C(ATOM      9  C   PRO A   8)   26.58700000  *  32.80400000  * -11.31400000  *
    10       O(ATOM     10  O   PRO A   8)   27.46900000  *  33.01000000  * -10.46500000  *
    11       C(ATOM     11  CB  PRO A   8)   27.68500000  *  33.89700000  * -13.33500000  *
    12       C(ATOM     12  CG  PRO A   8)   27.16700000  *  34.07600000  * -14.75500000  *
    13       C(ATOM     13  CD  PRO A   8)   25.72300000  *  33.73600000  * -14.58400000  *
    14       N(ATOM     14  N   GLU A   9)   25.29400000  *  32.70900000  * -10.99700000  *
    15       C(ATOM     15  CA  GLU A   9)   24.84500000  *  32.82200000  *  -9.61100000  *
    16       C(ATOM     16  C   GLU A   9)   24.62100000  *  31.44600000  *  -8.99200000  *
    17       O(ATOM     17  O   GLU A   9)   24.46800000  *  31.33400000  *  -7.76800000  *
    18       C(ATOM     18  CB  GLU A   9)   23.54400000  *  33.62400000  *  -9.49600000  *
    19       C(ATOM     19  CG  GLU A   9)   23.36600000  *  34.76000000  * -10.48500000  *
    20       C(ATOM     20  CD  GLU A   9)   22.27300000  *  34.47600000  * -11.51200000  *
    21       O(ATOM     21  OE1 GLU A   9)   21.53300000  *  33.48300000  * -11.35100000  *
    22       O(ATOM     22  OE2 GLU A   9)   22.14900000  *  35.24000000  * -12.48900000  *
    23       N(ATOM     23  N   TRP A  10)   24.61700000  *  30.40900000  *  -9.83300000  *
    24       C(ATOM     24  CA  TRP A  10)   24.39300000  *  29.03600000  *  -9.38200000  *
    25       C(ATOM     25  C   TRP A  10)   25.27200000  *  28.58500000  *  -8.21600000  *
    26       O(ATOM     26  O   TRP A  10)   24.79500000  *  27.97200000  *  -7.25400000  *
    27       C(ATOM     27  CB  TRP A  10)   24.54100000  *  28.05500000  * -10.54600000  *
    28       C(ATOM     28  CG  TRP A  10)   23.41200000  *  28.09600000  * -11.51100000  *
    29       C(ATOM     29  CD1 TRP A  10)   22.13300000  *  28.47600000  * -11.24900000  *
    30       C(ATOM     30  CD2 TRP A  10)   23.46500000  *  27.80600000  * -12.91600000  *
    31       N(ATOM     31  NE1 TRP A  10)   21.38600000  *  28.45700000  * -12.40200000  *
    32       C(ATOM     32  CE2 TRP A  10)   22.18100000  *  28.04800000  * -13.44100000  *
    33       C(ATOM     33  CE3 TRP A  10)   24.47700000  *  27.37000000  * -13.78400000  *
    34       C(ATOM     34  CZ2 TRP A  10)   21.87700000  *  27.87100000  * -14.79800000  *
    35       C(ATOM     35  CZ3 TRP A  10)   24.17300000  *  27.19200000  * -15.14000000  *
    36       C(ATOM     36  CH2 TRP A  10)   22.88500000  *  27.44400000  * -15.62800000  *
    37       N(ATOM     37  N   ILE A  11)   26.55800000  *  28.88000000  *  -8.29900000  *
    38       C(ATOM     38  CA  ILE A  11)   27.45300000  *  28.47800000  *  -7.25000000  *
    39       C(ATOM     39  C   ILE A  11)   27.07900000  *  29.19200000  *  -5.94700000  *
    40       O(ATOM     40  O   ILE A  11)   27.04900000  *  28.54900000  *  -4.90400000  *
    41       C(ATOM     41  CB  ILE A  11)   28.93400000  *  28.67900000  *  -7.67600000  *
    42       C(ATOM     42  CG1 ILE A  11)   29.87800000  *  27.90600000  *  -6.74100000  *
    43       C(ATOM     43  CG2 ILE A  11)   29.28500000  *  30.16800000  *  -7.75700000  *
    44       C(ATOM     44  CD1 ILE A  11)   29.59100000  *  26.41300000  *  -6.63500000  *
    45       N(ATOM     45  N   TRP A  12)   26.68900000  *  30.47300000  *  -6.02600000  *
    46       C(ATOM     46  CA  TRP A  12)   26.29600000  *  31.26600000  *  -4.84000000  *
    47       C(ATOM     47  C   TRP A  12)   24.92800000  *  30.80200000  *  -4.33700000  *
    48       O(ATOM     48  O   TRP A  12)   24.63300000  *  30.85500000  *  -3.12700000  *
    49       C(ATOM     49  CB  TRP A  12)   26.26500000  *  32.77000000  *  -5.15400000  *
    50       C(ATOM     50  CG  TRP A  12)   27.55600000  *  33.31900000  *  -5.77900000  *
    51       C(ATOM     51  CD1 TRP A  12)   27.65700000  *  34.18200000  *  -6.84300000  *
    52       C(ATOM     52  CD2 TRP A  12)   28.90700000  *  33.00200000  *  -5.39900000  *
    53       N(ATOM     53  NE1 TRP A  12)   28.97500000  *  34.40700000  *  -7.15100000  *
    54       C(ATOM     54  CE2 TRP A  12)   29.76200000  *  33.69600000  *  -6.28300000  *
    55       C(ATOM     55  CE3 TRP A  12)   29.47400000  *  32.19300000  *  -4.40300000  *
    56       C(ATOM     56  CZ2 TRP A  12)   31.15300000  *  33.60600000  *  -6.19700000  *
    57       C(ATOM     57  CZ3 TRP A  12)   30.85700000  *  32.10500000  *  -4.32000000  *
    58       C(ATOM     58  CH2 TRP A  12)   31.67900000  *  32.80800000  *  -5.21300000  *
    59       N(ATOM     59  N   LEU A  13)   24.09800000  *  30.33500000  *  -5.26800000  *
    60       C(ATOM     60  CA  LEU A  13)   22.76900000  *  29.81000000  *  -4.92800000  *
    61       C(ATOM     61  C   LEU A  13)   22.93300000  *  28.50300000  *  -4.13000000  *
    62       O(ATOM     62  O   LEU A  13)   22.59100000  *  28.43400000  *  -2.95200000  *
    63       C(ATOM     63  CB  LEU A  13)   21.95500000  *  29.52100000  *  -6.21100000  *
    64       C(ATOM     64  CG  LEU A  13)   20.88000000  *  30.47000000  *  -6.76500000  *
    65       C(ATOM     65  CD1 LEU A  13)   21.25100000  *  31.91700000  *  -6.58300000  *
    66       C(ATOM     66  CD2 LEU A  13)   20.64000000  *  30.17100000  *  -8.22400000  *
    67       N(ATOM     67  N   ALA A  14)   23.52500000  *  27.49800000  *  -4.77400000  *
    68       C(ATOM     68  CA  ALA A  14)   23.74300000  *  26.18400000  *  -4.18000000  *
    69       C(ATOM     69  C   ALA A  14)   24.62700000  *  26.16900000  *  -2.93100000  *
    70       O(ATOM     70  O   ALA A  14)   24.41500000  *  25.35200000  *  -2.03600000  *
    71       C(ATOM     71  CB  ALA A  14)   24.27100000  *  25.22600000  *  -5.22400000  *
    72       N(ATOM     72  N   LEU A  15)   25.62800000  *  27.04500000  *  -2.88500000  *
    73       C(ATOM     73  CA  LEU A  15)   26.52200000  *  27.15500000  *  -1.71800000  *
    74       C(ATOM     74  C   LEU A  15)   25.73400000  *  27.82400000  *  -0.59500000  *
    75       O(ATOM     75  O   LEU A  15)   25.95400000  *  27.55600000  *   0.58400000  *
    76       C(ATOM     76  CB  LEU A  15)   27.73000000  *  28.02500000  *  -2.04900000  *
    77       C(ATOM     77  CG  LEU A  15)   28.84000000  *  28.14500000  *  -1.01800000  *
    78       C(ATOM     78  CD1 LEU A  15)   29.52400000  *  26.77900000  *  -0.77700000  *
    79       C(ATOM     79  CD2 LEU A  15)   29.83200000  *  29.18100000  *  -1.53100000  *
    80       N(ATOM     80  N   GLY A  16)   24.81700000  *  28.70800000  *  -0.98800000  *
    81       C(ATOM     81  CA  GLY A  16)   23.98000000  *  29.39700000  *  -0.03000000  *
    82       C(ATOM     82  C   GLY A  16)   23.06300000  *  28.40000000  *   0.64700000  *
    83       O(ATOM     83  O   GLY A  16)   22.76000000  *  28.52800000  *   1.83400000  *
    84       N(ATOM     84  N   THR A  17)   22.59800000  *  27.42200000  *  -0.13000000  *
    85       C(ATOM     85  CA  THR A  17)   21.72100000  *  26.37500000  *   0.38600000  *
    86       C(ATOM     86  C   THR A  17)   22.55900000  *  25.41400000  *   1.22900000  *
    87       O(ATOM     87  O   THR A  17)   22.09100000  *  24.87400000  *   2.24000000  *
    88       C(ATOM     88  CB  THR A  17)   21.03800000  *  25.60900000  *  -0.75500000  *
    89       O(ATOM     89  OG1 THR A  17)   21.85100000  *  25.67800000  *  -1.92600000  *
    90       C(ATOM     90  CG2 THR A  17)   19.68200000  *  26.20000000  *  -1.06200000  *
    91       N(ATOM     91  N   ALA A  18)   23.81500000  *  25.24900000  *   0.82200000  *
    92       C(ATOM     92  CA  ALA A  18)   24.75500000  *  24.39300000  *   1.53200000  *
    93       C(ATOM     93  C   ALA A  18)   25.12900000  *  25.00600000  *   2.88800000  *
    94       O(ATOM     94  O   ALA A  18)   25.24800000  *  24.28100000  *   3.88000000  *
    95       C(ATOM     95  CB  ALA A  18)   26.00600000  *  24.15700000  *   0.68500000  *
    96       N(ATOM     96  N   LEU A  19)   25.29600000  *  26.33200000  *   2.93900000  *
    97       C(ATOM     97  CA  LEU A  19)   25.64500000  *  27.00700000  *   4.20100000  *
    98       C(ATOM     98  C   LEU A  19)   24.47600000  *  27.11700000  *   5.18900000  *
    99       O(ATOM     99  O   LEU A  19)   24.67900000  *  27.39700000  *   6.37400000  *
   100       C(ATOM    100  CB  LEU A  19)   26.29400000  *  28.38100000  *   3.96100000  *
   101       C(ATOM    101  CG  LEU A  19)   27.67800000  *  28.33300000  *   3.29700000  *
   102       C(ATOM    102  CD1 LEU A  19)   28.34700000  *  29.69200000  *   3.38400000  *
   103       C(ATOM    103  CD2 LEU A  19)   28.53700000  *  27.27700000  *   3.95800000  *
   104       N(ATOM    104  N   MET A  20)   23.25900000  *  26.91700000  *   4.68200000  *
   105       C(ATOM    105  CA  MET A  20)   22.04800000  *  26.93100000  *   5.50100000  *
   106       C(ATOM    106  C   MET A  20)   21.72600000  *  25.45500000  *   5.75100000  *
   107       O(ATOM    107  O   MET A  20)   21.14500000  *  25.09000000  *   6.77700000  *
   108       C(ATOM    108  CB  MET A  20)   20.89600000  *  27.60600000  *   4.75800000  *
   109       C(ATOM    109  CG  MET A  20)   21.21200000  *  28.99500000  *   4.22400000  *
   110       S(ATOM    110  SD  MET A  20)   21.65200000  *  30.24300000  *   5.46700000  *
   111       C(ATOM    111  CE  MET A  20)   20.04700000  *  30.60100000  *   6.18900000  *
   112       N(ATOM    112  N   GLY A  21)   22.08600000  *  24.62000000  *   4.77500000  *
   113       C(ATOM    113  CA  GLY A  21)   21.90500000  *  23.18300000  *   4.89400000  *
   114       C(ATOM    114  C   GLY A  21)   23.12800000  *  22.70100000  *   5.65500000  *
   115       O(ATOM    115  O   GLY A  21)   24.01700000  *  22.02900000  *   5.11200000  *
   116       N(ATOM    116  N   LEU A  22)   23.18700000  *  23.13300000  *   6.91000000  *
   117       C(ATOM    117  CA  LEU A  22)   24.27300000  *  22.83400000  *   7.82900000  *
   118       C(ATOM    118  C   LEU A  22)   23.75800000  *  23.23600000  *   9.20400000  *
   119       O(ATOM    119  O   LEU A  22)   23.76800000  *  22.44000000  *  10.14200000  *
   120       C(ATOM    120  CB  LEU A  22)   25.49700000  *  23.68500000  *   7.48600000  *
   121       C(ATOM    121  CG  LEU A  22)   26.68300000  *  23.59300000  *   8.44700000  *
   122       C(ATOM    122  CD1 LEU A  22)   27.63900000  *  22.47800000  *   8.00100000  *
   123       C(ATOM    123  CD2 LEU A  22)   27.41400000  *  24.92700000  *   8.49000000  *
   124       N(ATOM    124  N   GLY A  23)   23.29100000  *  24.48000000  *   9.30100000  *
   125       C(ATOM    125  CA  GLY A  23)   22.76200000  *  24.99400000  *  10.55300000  *
   126       C(ATOM    126  C   GLY A  23)   21.44700000  *  24.33000000  *  10.90900000  *
   127       O(ATOM    127  O   GLY A  23)   21.22400000  *  23.95900000  *  12.06200000  *
   128       N(ATOM    128  N   THR A  24)   20.57500000  *  24.17600000  *   9.91500000  *
   129       C(ATOM    129  CA  THR A  24)   19.28700000  *  23.53400000  *  10.13200000  *
   130       C(ATOM    130  C   THR A  24)   19.58700000  *  22.14100000  *  10.66500000  *
   131       O(ATOM    131  O   THR A  24)   18.84200000  *  21.61700000  *  11.48200000  *
   132       C(ATOM    132  CB  THR A  24)   18.46300000  *  23.43200000  *   8.82600000  *
   133       O(ATOM    133  OG1 THR A  24)   18.34300000  *  24.73100000  *   8.23100000  *
   134       C(ATOM    134  CG2 THR A  24)   17.05900000  *  22.90400000  *   9.11200000  *
   135       N(ATOM    135  N   LEU A  25)   20.72300000  *  21.58100000  *  10.24600000  *
   136       C(ATOM    136  CA  LEU A  25)   21.16300000  *  20.25400000  *  10.68100000  *
   137       C(ATOM    137  C   LEU A  25)   21.82900000  *  20.29300000  *  12.05700000  *
   138       O(ATOM    138  O   LEU A  25)   21.51200000  *  19.47900000  *  12.92600000  *
   139       C(ATOM    139  CB  LEU A  25)   22.11100000  *  19.63900000  *   9.65100000  *
   140       C(ATOM    140  CG  LEU A  25)   21.44300000  *  19.33900000  *   8.30800000  *
   141       C(ATOM    141  CD1 LEU A  25)   22.46200000  *  18.82500000  *   7.29900000  *
   142       C(ATOM    142  CD2 LEU A  25)   20.31100000  *  18.34100000  *   8.52100000  *
   143       N(ATOM    143  N   TYR A  26)   22.74800000  *  21.23700000  *  12.25200000  *
   144       C(ATOM    144  CA  TYR A  26)   23.44300000  *  21.38600000  *  13.52900000  *
   145       C(ATOM    145  C   TYR A  26)   22.48000000  *  21.81100000  *  14.63600000  *
   146       O(ATOM    146  O   TYR A  26)   22.29100000  *  21.08600000  *  15.61700000  *
   147       C(ATOM    147  CB  TYR A  26)   24.57200000  *  22.41600000  *  13.41000000  *
   148       C(ATOM    148  CG  TYR A  26)   25.94700000  *  21.81800000  *  13.20300000  *
   149       C(ATOM    149  CD1 TYR A  26)   26.66000000  *  21.28000000  *  14.27500000  *
   150       C(ATOM    150  CD2 TYR A  26)   26.54800000  *  21.80500000  *  11.94000000  *
   151       C(ATOM    151  CE1 TYR A  26)   27.94000000  *  20.74600000  *  14.09900000  *
   152       C(ATOM    152  CE2 TYR A  26)   27.83000000  *  21.27100000  *  11.75300000  *
   153       C(ATOM    153  CZ  TYR A  26)   28.51800000  *  20.74500000  *  12.83900000  *
   154       O(ATOM    154  OH  TYR A  26)   29.78300000  *  20.22900000  *  12.67700000  *
   155       N(ATOM    155  N   PHE A  27)   21.84400000  *  22.96700000  *  14.44500000  *
   156       C(ATOM    156  CA  PHE A  27)   20.90300000  *  23.53300000  *  15.41200000  *
   157       C(ATOM    157  C   PHE A  27)   19.69500000  *  22.66300000  *  15.75000000  *
   158       O(ATOM    158  O   PHE A  27)   19.05400000  *  22.87300000  *  16.78200000  *
   159       C(ATOM    159  CB  PHE A  27)   20.43700000  *  24.92300000  *  14.96000000  *
   160       C(ATOM    160  CG  PHE A  27)   21.50800000  *  25.98100000  *  15.04100000  *
   161       C(ATOM    161  CD1 PHE A  27)   22.09500000  *  26.30600000  *  16.26400000  *
   162       C(ATOM    162  CD2 PHE A  27)   21.93200000  *  26.65300000  *  13.89900000  *
   163       C(ATOM    163  CE1 PHE A  27)   23.08800000  *  27.28300000  *  16.34200000  *
   164       C(ATOM    164  CE2 PHE A  27)   22.92100000  *  27.62600000  *  13.96900000  *
   165       C(ATOM    165  CZ  PHE A  27)   23.50000000  *  27.94200000  *  15.19000000  *
   166       N(ATOM    166  N   LEU A  28)   19.36900000  *  21.70400000  *  14.88300000  *
   167       C(ATOM    167  CA  LEU A  28)   18.23800000  *  20.81400000  *  15.13600000  *
   168       C(ATOM    168  C   LEU A  28)   18.57900000  *  19.74700000  *  16.17300000  *
   169       O(ATOM    169  O   LEU A  28)   17.69600000  *  19.24400000  *  16.86700000  *
   170       C(ATOM    170  CB  LEU A  28)   17.76700000  *  20.14000000  *  13.84900000  *
   171       C(ATOM    171  CG  LEU A  28)   16.61100000  *  20.78400000  *  13.07700000  *
   172       C(ATOM    172  CD1 LEU A  28)   16.32200000  *  19.96500000  *  11.83000000  *
   173       C(ATOM    173  CD2 LEU A  28)   15.36500000  *  20.86200000  *  13.94100000  *
   174       N(ATOM    174  N   VAL A  29)   19.86300000  *  19.41400000  *  16.27800000  *
   175       C(ATOM    175  CA  VAL A  29)   20.32700000  *  18.40300000  *  17.22100000  *
   176       C(ATOM    176  C   VAL A  29)   20.28200000  *  18.90600000  *  18.66000000  *
   177       O(ATOM    177  O   VAL A  29)   19.88900000  *  18.16800000  *  19.57100000  *
   178       C(ATOM    178  CB  VAL A  29)   21.76600000  *  17.94000000  *  16.89000000  *
   179       C(ATOM    179  CG1 VAL A  29)   22.21700000  *  16.86400000  *  17.86800000  *
   180       C(ATOM    180  CG2 VAL A  29)   21.83500000  *  17.41100000  *  15.46500000  *
   181       N(ATOM    181  N   LYS A  30)   20.67800000  *  20.16000000  *  18.86100000  *
   182       C(ATOM    182  CA  LYS A  30)   20.69000000  *  20.75000000  *  20.19800000  *
   183       C(ATOM    183  C   LYS A  30)   19.29000000  *  21.14000000  *  20.65700000  *
   184       O(ATOM    184  O   LYS A  30)   18.99900000  *  21.15000000  *  21.85300000  *
   185       C(ATOM    185  CB  LYS A  30)   21.59800000  *  21.97700000  *  20.24000000  *
   186       C(ATOM    186  CG  LYS A  30)   21.89400000  *  22.44900000  *  21.65000000  *
   187       C(ATOM    187  CD  LYS A  30)   22.11900000  *  23.94400000  *  21.68900000  *
   188       C(ATOM    188  CE  LYS A  30)   22.50600000  *  24.41100000  *  23.08300000  *
   189       N(ATOM    189  NZ  LYS A  30)   22.73300000  *  25.88700000  *  23.13900000  *
   190       N(ATOM    190  N   GLY A  31)   18.43200000  *  21.47200000  *  19.69800000  *
   191       C(ATOM    191  CA  GLY A  31)   17.06900000  *  21.85400000  *  20.01800000  *
   192       C(ATOM    192  C   GLY A  31)   16.26600000  *  20.71800000  *  20.62800000  *
   193       O(ATOM    193  O   GLY A  31)   16.74000000  *  19.58000000  *  20.71000000  *
   194       N(ATOM    194  N   MET A  32)   15.04500000  *  21.03500000  *  21.05400000  *
   195       C(ATOM    195  CA  MET A  32)   14.12800000  *  20.07100000  *  21.66600000  *
   196       C(ATOM    196  C   MET A  32)   14.60600000  *  19.55800000  *  23.03000000  *
   197       O(ATOM    197  O   MET A  32)   14.04300000  *  18.60200000  *  23.57300000  *
   198       C(ATOM    198  CB  MET A  32)   13.85900000  *  18.89400000  *  20.71800000  *
   199       C(ATOM    199  CG  MET A  32)   13.70600000  *  19.27300000  *  19.24400000  *
   200       S(ATOM    200  SD  MET A  32)   12.71900000  *  20.75900000  *  18.97400000  *
   201       C(ATOM    201  CE  MET A  32)   11.06100000  *  20.07600000  *  19.05700000  *
   202       N(ATOM    202  N   GLY A  33)   15.64900000  *  20.18900000  *  23.57200000  *
   203       C(ATOM    203  CA  GLY A  33)   16.17800000  *  19.80200000  *  24.87100000  *
   204       C(ATOM    204  C   GLY A  33)   15.50000000  *  20.60400000  *  25.96700000  *
   205       O(ATOM    205  O   GLY A  33)   15.92500000  *  21.71300000  *  26.28300000  *
   206       N(ATOM    206  N   VAL A  34)   14.44200000  *  20.03600000  *  26.54200000  *
   207       C(ATOM    207  CA  VAL A  34)   13.66500000  *  20.69500000  *  27.59000000  *
   208       C(ATOM    208  C   VAL A  34)   14.37400000  *  20.88800000  *  28.92800000  *
   209       O(ATOM    209  O   VAL A  34)   14.32100000  *  20.02700000  *  29.80700000  *
   210       C(ATOM    210  CB  VAL A  34)   12.29900000  *  19.98300000  *  27.82500000  *
   211       C(ATOM    211  CG1 VAL A  34)   11.37400000  *  20.20800000  *  26.64200000  *
   212       C(ATOM    212  CG2 VAL A  34)   12.49800000  *  18.48800000  *  28.05400000  *
   213       N(ATOM    213  N   SER A  35)   15.04300000  *  22.03000000  *  29.06500000  *
   214       C(ATOM    214  CA  SER A  35)   15.75000000  *  22.39100000  *  30.29500000  *
   215       C(ATOM    215  C   SER A  35)   15.01100000  *  23.57300000  *  30.90300000  *
   216       O(ATOM    216  O   SER A  35)   14.76300000  *  23.62100000  *  32.10800000  *
   217       C(ATOM    217  CB  SER A  35)   17.19500000  *  22.79500000  *  29.99900000  *
   218       O(ATOM    218  OG  SER A  35)   17.80800000  *  23.34900000  *  31.15100000  *
   219       N(ATOM    219  N   ASP A  36)   14.68400000  *  24.53400000  *  30.04700000  *
   220       C(ATOM    220  CA  ASP A  36)   13.95700000  *  25.72700000  *  30.44700000  *
   221       C(ATOM    221  C   ASP A  36)   12.88100000  *  25.97300000  *  29.39400000  *
   222       O(ATOM    222  O   ASP A  36)   13.12500000  *  25.80000000  *  28.19300000  *
   223       C(ATOM    223  CB  ASP A  36)   14.89600000  *  26.93700000  *  30.52500000  *
   224       C(ATOM    224  CG  ASP A  36)   15.99500000  *  26.76400000  *  31.55600000  *
   225       O(ATOM    225  OD1 ASP A  36)   15.67500000  *  26.60600000  *  32.75400000  *
   226       O(ATOM    226  OD2 ASP A  36)   17.18100000  *  26.79500000  *  31.16600000  *
   227       N(ATOM    227  N   PRO A  37)   11.66600000  *  26.34200000  *  29.83200000  *
   228       C(ATOM    228  CA  PRO A  37)   10.54300000  *  26.61200000  *  28.92800000  *
   229       C(ATOM    229  C   PRO A  37)   10.83300000  *  27.83200000  *  28.05900000  *
   230       O(ATOM    230  O   PRO A  37)   10.34100000  *  27.94000000  *  26.93700000  *
   231       C(ATOM    231  CB  PRO A  37)    9.38600000  *  26.88100000  *  29.89300000  *
   232       C(ATOM    232  CG  PRO A  37)    9.77100000  *  26.10900000  *  31.12400000  *
   233       C(ATOM    233  CD  PRO A  37)   11.23400000  *  26.43600000  *  31.23600000  *
   234       N(ATOM    234  N   ASP A  38)   11.64000000  *  28.74300000  *  28.59500000  *
   235       C(ATOM    235  CA  ASP A  38)   12.02200000  *  29.96200000  *  27.89200000  *
   236       C(ATOM    236  C   ASP A  38)   13.09900000  *  29.69200000  *  26.84600000  *
   237       O(ATOM    237  O   ASP A  38)   13.11800000  *  30.31800000  *  25.78800000  *
   238       C(ATOM    238  CB  ASP A  38)   12.51900000  *  31.00400000  *  28.89100000  *
   239       C(ATOM    239  CG  ASP A  38)   11.44700000  *  31.42300000  *  29.88300000  *
   240       O(ATOM    240  OD1 ASP A  38)   10.29800000  *  30.93100000  *  29.79000000  *
   241       O(ATOM    241  OD2 ASP A  38)   11.76300000  *  32.25700000  *  30.76000000  *
   242       N(ATOM    242  N   ALA A  39)   13.99400000  *  28.75900000  *  27.15600000  *
   243       C(ATOM    243  CA  ALA A  39)   15.07100000  *  28.38900000  *  26.25000000  *
   244       C(ATOM    244  C   ALA A  39)   14.49800000  *  27.67200000  *  25.03200000  *
   245       O(ATOM    245  O   ALA A  39)   15.06400000  *  27.75600000  *  23.93600000  *
   246       C(ATOM    246  CB  ALA A  39)   16.07900000  *  27.50100000  *  26.97000000  *
   247       N(ATOM    247  N   LYS A  40)   13.36900000  *  26.98500000  *  25.23700000  *
   248       C(ATOM    248  CA  LYS A  40)   12.66700000  *  26.24300000  *  24.17900000  *
   249       C(ATOM    249  C   LYS A  40)   12.17500000  *  27.12700000  *  23.03100000  *
   250       O(ATOM    250  O   LYS A  40)   12.38000000  *  26.79600000  *  21.85500000  *
   251       C(ATOM    251  CB  LYS A  40)   11.49200000  *  25.45000000  *  24.76500000  *
   252       C(ATOM    252  CG  LYS A  40)   11.88100000  *  24.10200000  *  25.36400000  *
   253       C(ATOM    253  CD  LYS A  40)   11.64600000  *  22.93900000  *  24.38900000  *
   254       C(ATOM    254  CE  LYS A  40)   12.50300000  *  23.02600000  *  23.12600000  *
   255       N(ATOM    255  NZ  LYS A  40)   13.97000000  *  22.96800000  *  23.40500000  *
   256       N(ATOM    256  N   LYS A  41)   11.50700000  *  28.23000000  *  23.37800000  *
   257       C(ATOM    257  CA  LYS A  41)   11.01500000  *  29.18200000  *  22.38600000  *
   258       C(ATOM    258  C   LYS A  41)   12.19100000  *  29.87300000  *  21.69200000  *
   259       O(ATOM    259  O   LYS A  41)   12.16700000  *  30.08400000  *  20.48500000  *
   260       C(ATOM    260  CB  LYS A  41)   10.06600000  *  30.21600000  *  23.01200000  *
   261       C(ATOM    261  CG  LYS A  41)   10.61600000  *  31.01300000  *  24.18700000  *
   262       C(ATOM    262  CD  LYS A  41)    9.76800000  *  32.27700000  *  24.47900000  *
   263       C(ATOM    263  CE  LYS A  41)    8.32800000  *  31.96300000  *  24.83400000  *
   264       N(ATOM    264  NZ  LYS A  41)    8.21200000  *  31.10500000  *  26.05000000  *
   265       N(ATOM    265  N   PHE A  42)   13.23000000  *  30.19700000  *  22.45400000  *
   266       C(ATOM    266  CA  PHE A  42)   14.42500000  *  30.82900000  *  21.89100000  *
   267       C(ATOM    267  C   PHE A  42)   15.08100000  *  29.91800000  *  20.84400000  *
   268       O(ATOM    268  O   PHE A  42)   15.43800000  *  30.38600000  *  19.75800000  *
   269       C(ATOM    269  CB  PHE A  42)   15.42900000  *  31.18600000  *  22.99700000  *
   270       C(ATOM    270  CG  PHE A  42)   15.10600000  *  32.47000000  *  23.72400000  *
   271       C(ATOM    271  CD1 PHE A  42)   15.29100000  *  33.70100000  *  23.10300000  *
   272       C(ATOM    272  CD2 PHE A  42)   14.61900000  *  32.45200000  *  25.02200000  *
   273       C(ATOM    273  CE1 PHE A  42)   14.99800000  *  34.89900000  *  23.75700000  *
   274       C(ATOM    274  CE2 PHE A  42)   14.31900000  *  33.64400000  *  25.69100000  *
   275       C(ATOM    275  CZ  PHE A  42)   14.51100000  *  34.87300000  *  25.05200000  *
   276       N(ATOM    276  N   TYR A  43)   15.21500000  *  28.62500000  *  21.15900000  *
   277       C(ATOM    277  CA  TYR A  43)   15.80500000  *  27.65700000  *  20.22300000  *
   278       C(ATOM    278  C   TYR A  43)   14.92900000  *  27.47200000  *  18.98600000  *
   279       O(ATOM    279  O   TYR A  43)   15.39700000  *  27.67900000  *  17.85800000  *
   280       C(ATOM    280  CB  TYR A  43)   16.02400000  *  26.28400000  *  20.88100000  *
   281       C(ATOM    281  CG  TYR A  43)   17.19700000  *  26.22400000  *  21.83700000  *
   282       C(ATOM    282  CD1 TYR A  43)   18.49700000  *  26.51200000  *  21.40500000  *
   283       C(ATOM    283  CD2 TYR A  43)   17.00900000  *  25.91300000  *  23.18500000  *
   284       C(ATOM    284  CE1 TYR A  43)   19.57900000  *  26.49800000  *  22.30000000  *
   285       C(ATOM    285  CE2 TYR A  43)   18.08400000  *  25.89800000  *  24.08700000  *
   286       C(ATOM    286  CZ  TYR A  43)   19.35900000  *  26.19400000  *  23.63600000  *
   287       O(ATOM    287  OH  TYR A  43)   20.40000000  *  26.21600000  *  24.52700000  *
   288       N(ATOM    288  N   ALA A  44)   13.66000000  *  27.11400000  *  19.21100000  *
   289       C(ATOM    289  CA  ALA A  44)   12.68000000  *  26.86300000  *  18.14600000  *
   290       C(ATOM    290  C   ALA A  44)   12.89200000  *  27.73000000  *  16.92700000  *
   291       O(ATOM    291  O   ALA A  44)   13.17100000  *  27.22800000  *  15.84000000  *
   292       C(ATOM    292  CB  ALA A  44)   11.26700000  *  27.05500000  *  18.66900000  *
   293       N(ATOM    293  N   ILE A  45)   12.81400000  *  29.04000000  *  17.14600000  *
   294       C(ATOM    294  CA  ILE A  45)   12.97400000  *  30.04100000  *  16.09800000  *
   295       C(ATOM    295  C   ILE A  45)   14.31500000  *  30.00200000  *  15.38400000  *
   296       O(ATOM    296  O   ILE A  45)   14.34800000  *  29.99700000  *  14.15300000  *
   297       C(ATOM    297  CB  ILE A  45)   12.70400000  *  31.47000000  *  16.64600000  *
   298       C(ATOM    298  CG1 ILE A  45)   11.19400000  *  31.68700000  *  16.79500000  *
   299       C(ATOM    299  CG2 ILE A  45)   13.33400000  *  32.53800000  *  15.74700000  *
   300       C(ATOM    300  CD1 ILE A  45)   10.81200000  *  33.04200000  *  17.37500000  *
   301       N(ATOM    301  N   THR A  46)   15.41100000  *  29.96400000  *  16.13900000  *
   302       C(ATOM    302  CA  THR A  46)   16.73400000  *  29.94000000  *  15.52000000  *
   303       C(ATOM    303  C   THR A  46)   17.14300000  *  28.54200000  *  15.03100000  *
   304       O(ATOM    304  O   THR A  46)   18.22400000  *  28.02900000  *  15.34500000  *
   305       C(ATOM    305  CB  THR A  46)   17.80900000  *  30.56900000  *  16.43300000  *
   306       O(ATOM    306  OG1 THR A  46)   17.24500000  *  31.68900000  *  17.12000000  *
   307       C(ATOM    307  CG2 THR A  46)   18.95700000  *  31.08300000  *  15.60200000  *
   308       N(ATOM    308  N   THR A  47)   16.24900000  *  27.96100000  *  14.23500000  *
   309       C(ATOM    309  CA  THR A  47)   16.39700000  *  26.64600000  *  13.61400000  *
   310       C(ATOM    310  C   THR A  47)   15.33100000  *  26.61100000  *  12.51100000  *
   311       O(ATOM    311  O   THR A  47)   15.45500000  *  25.89100000  *  11.51700000  *
   312       C(ATOM    312  CB  THR A  47)   16.18300000  *  25.49600000  *  14.64100000  *
   313       O(ATOM    313  OG1 THR A  47)   17.30100000  *  25.44300000  *  15.53500000  *
   314       C(ATOM    314  CG2 THR A  47)   16.07100000  *  24.16500000  *  13.95300000  *
   315       N(ATOM    315  N   LEU A  48)   14.29500000  *  27.42600000  *  12.69700000  *
   316       C(ATOM    316  CA  LEU A  48)   13.20400000  *  27.55900000  *  11.74100000  *
   317       C(ATOM    317  C   LEU A  48)   13.57900000  *  28.63600000  *  10.71400000  *
   318       O(ATOM    318  O   LEU A  48)   13.18800000  *  28.56200000  *   9.54500000  *
   319       C(ATOM    319  CB  LEU A  48)   11.92200000  *  27.95800000  *  12.46800000  *
   320       C(ATOM    320  CG  LEU A  48)   10.91700000  *  26.86200000  *  12.83000000  *
   321       C(ATOM    321  CD1 LEU A  48)   11.58300000  *  25.69600000  *  13.52600000  *
   322       C(ATOM    322  CD2 LEU A  48)    9.82500000  *  27.44000000  *  13.70900000  *
   323       N(ATOM    323  N   VAL A  49)   14.34200000  *  29.63100000  *  11.16800000  *
   324       C(ATOM    324  CA  VAL A  49)   14.80900000  *  30.74300000  *  10.34000000  *
   325       C(ATOM    325  C   VAL A  49)   15.74600000  *  30.28700000  *   9.21300000  *
   326       O(ATOM    326  O   VAL A  49)   15.49800000  *  30.59300000  *   8.04600000  *
   327       C(ATOM    327  CB  VAL A  49)   15.47100000  *  31.84800000  *  11.22800000  *
   328       C(ATOM    328  CG1 VAL A  49)   16.53700000  *  32.62100000  *  10.47000000  *
   329       C(ATOM    329  CG2 VAL A  49)   14.39600000  *  32.80600000  *  11.74000000  *
   330       N(ATOM    330  N   PRO A  50)   16.82400000  *  29.54500000  *   9.53400000  *
   331       C(ATOM    331  CA  PRO A  50)   17.70100000  *  29.12000000  *   8.43600000  *
   332       C(ATOM    332  C   PRO A  50)   17.07000000  *  28.00200000  *   7.62800000  *
   333       O(ATOM    333  O   PRO A  50)   17.55400000  *  27.65000000  *   6.55100000  *
   334       C(ATOM    334  CB  PRO A  50)   18.96100000  *  28.65200000  *   9.15900000  *
   335       C(ATOM    335  CG  PRO A  50)   18.43500000  *  28.12600000  *  10.47400000  *
   336       C(ATOM    336  CD  PRO A  50)   17.38200000  *  29.15700000  *  10.84600000  *
   337       N(ATOM    337  N   ALA A  51)   15.97800000  *  27.46100000  *   8.16000000  *
   338       C(ATOM    338  CA  ALA A  51)   15.23500000  *  26.38800000  *   7.51700000  *
   339       C(ATOM    339  C   ALA A  51)   14.27900000  *  26.93000000  *   6.45100000  *
   340       O(ATOM    340  O   ALA A  51)   14.08700000  *  26.29600000  *   5.40800000  *
   341       C(ATOM    341  CB  ALA A  51)   14.47700000  *  25.59700000  *   8.55700000  *
   342       N(ATOM    342  N   ILE A  52)   13.69000000  *  28.09800000  *   6.71000000  *
   343       C(ATOM    343  CA  ILE A  52)   12.78600000  *  28.72100000  *   5.74400000  *
   344       C(ATOM    344  C   ILE A  52)   13.61600000  *  29.29900000  *   4.59000000  *
   345       O(ATOM    345  O   ILE A  52)   13.27700000  *  29.12500000  *   3.41800000  *
   346       C(ATOM    346  CB  ILE A  52)   11.89800000  *  29.83400000  *   6.38900000  *
   347       C(ATOM    347  CG1 ILE A  52)   11.04300000  *  29.25300000  *   7.53200000  *
   348       C(ATOM    348  CG2 ILE A  52)   10.97200000  *  30.44500000  *   5.32700000  *
   349       C(ATOM    349  CD1 ILE A  52)   10.47700000  *  30.27300000  *   8.48400000  *
   350       N(ATOM    350  N   ALA A  53)   14.71900000  *  29.95900000  *   4.91100000  *
   351       C(ATOM    351  CA  ALA A  53)   15.58700000  *  30.51000000  *   3.86000000  *
   352       C(ATOM    352  C   ALA A  53)   16.23400000  *  29.38300000  *   3.02500000  *
   353       O(ATOM    353  O   ALA A  53)   16.41100000  *  29.52900000  *   1.81900000  *
   354       C(ATOM    354  CB  ALA A  53)   16.66000000  *  31.43500000  *   4.46400000  *
   355       N(ATOM    355  N   PHE A  54)   16.56800000  *  28.26400000  *   3.67000000  *
   356       C(ATOM    356  CA  PHE A  54)   17.15700000  *  27.11200000  *   2.98400000  *
   357       C(ATOM    357  C   PHE A  54)   16.24700000  *  26.64400000  *   1.84200000  *
   358       O(ATOM    358  O   PHE A  54)   16.71500000  *  26.34200000  *   0.74100000  *
   359       C(ATOM    359  CB  PHE A  54)   17.36600000  *  25.95100000  *   3.96500000  *
   360       C(ATOM    360  CG  PHE A  54)   17.69900000  *  24.63600000  *   3.29600000  *
   361       C(ATOM    361  CD1 PHE A  54)   16.68300000  *  23.78600000  *   2.84500000  *
   362       C(ATOM    362  CD2 PHE A  54)   19.02800000  *  24.24200000  *   3.12000000  *
   363       C(ATOM    363  CE1 PHE A  54)   16.98500000  *  22.57000000  *   2.23100000  *
   364       C(ATOM    364  CE2 PHE A  54)   19.34200000  *  23.02200000  *   2.50700000  *
   365       C(ATOM    365  CZ  PHE A  54)   18.32000000  *  22.18600000  *   2.06100000  *
   366       N(ATOM    366  N   THR A  55)   14.95100000  *  26.54100000  *   2.13300000  *
   367       C(ATOM    367  CA  THR A  55)   13.97700000  *  26.10600000  *   1.14200000  *
   368       C(ATOM    368  C   THR A  55)   13.93100000  *  27.12200000  *   0.02400000  *
   369       O(ATOM    369  O   THR A  55)   13.94300000  *  26.76100000  *  -1.14900000  *
   370       C(ATOM    370  CB  THR A  55)   12.55900000  *  25.97900000  *   1.74500000  *
   371       O(ATOM    371  OG1 THR A  55)   12.07000000  *  27.27200000  *   2.11600000  *
   372       C(ATOM    372  CG2 THR A  55)   12.57300000  *  25.07600000  *   2.97400000  *
   373       N(ATOM    373  N   MET A  56)   13.92500000  *  28.39700000  *   0.41800000  *
   374       C(ATOM    374  CA  MET A  56)   13.86600000  *  29.53500000  *  -0.50700000  *
   375       C(ATOM    375  C   MET A  56)   15.06400000  *  29.62400000  *  -1.43900000  *
   376       O(ATOM    376  O   MET A  56)   14.89200000  *  29.90100000  *  -2.62100000  *
   377       C(ATOM    377  CB  MET A  56)   13.70900000  *  30.84800000  *   0.26000000  *
   378       C(ATOM    378  CG  MET A  56)   12.58600000  *  31.69500000  *  -0.26700000  *
   379       S(ATOM    379  SD  MET A  56)   10.96700000  *  30.93900000  *   0.00800000  *
   380       C(ATOM    380  CE  MET A  56)   10.38400000  *  30.62000000  *  -1.68700000  *
   381       N(ATOM    381  N   TYR A  57)   16.26700000  *  29.39900000  *  -0.90200000  *
   382       C(ATOM    382  CA  TYR A  57)   17.49100000  *  29.41900000  *  -1.70600000  *
   383       C(ATOM    383  C   TYR A  57)   17.42900000  *  28.26300000  *  -2.70800000  *
   384       O(ATOM    384  O   TYR A  57)   17.84300000  *  28.40200000  *  -3.86700000  *
   385       C(ATOM    385  CB  TYR A  57)   18.73200000  *  29.26400000  *  -0.83200000  *
   386       C(ATOM    386  CG  TYR A  57)   18.90100000  *  30.32500000  *   0.22400000  *
   387       C(ATOM    387  CD1 TYR A  57)   18.77800000  *  31.67300000  *  -0.08600000  *
   388       C(ATOM    388  CD2 TYR A  57)   19.19200000  *  29.97900000  *   1.54100000  *
   389       C(ATOM    389  CE1 TYR A  57)   18.93800000  *  32.65400000  *   0.88400000  *
   390       C(ATOM    390  CE2 TYR A  57)   19.35000000  *  30.95200000  *   2.51800000  *
   391       C(ATOM    391  CZ  TYR A  57)   19.22100000  *  32.28300000  *   2.18000000  *
   392       O(ATOM    392  OH  TYR A  57)   19.36400000  *  33.24700000  *   3.14100000  *
   393       N(ATOM    393  N   LEU A  58)   16.90900000  *  27.12200000  *  -2.25200000  *
   394       C(ATOM    394  CA  LEU A  58)   16.75300000  *  25.95100000  *  -3.11100000  *
   395       C(ATOM    395  C   LEU A  58)   15.68300000  *  26.27600000  *  -4.15000000  *
   396       O(ATOM    396  O   LEU A  58)   15.54000000  *  25.55900000  *  -5.13600000  *
   397       C(ATOM    397  CB  LEU A  58)   16.34300000  *  24.71900000  *  -2.29500000  *
   398       C(ATOM    398  CG  LEU A  58)   17.31100000  *  23.52800000  *  -2.15800000  *
   399       C(ATOM    399  CD1 LEU A  58)   16.77300000  *  22.53100000  *  -1.13700000  *
   400       C(ATOM    400  CD2 LEU A  58)   17.52300000  *  22.83000000  *  -3.48300000  *
   401       N(ATOM    401  N   SER A  59)   14.92700000  *  27.34800000  *  -3.90100000  *
   402       C(ATOM    402  CA  SER A  59)   13.88300000  *  27.81500000  *  -4.81000000  *
   403       C(ATOM    403  C   SER A  59)   14.56900000  *  28.56900000  *  -5.94200000  *
   404       O(ATOM    404  O   SER A  59)   14.31100000  *  28.31900000  *  -7.12000000  *
   405       C(ATOM    405  CB  SER A  59)   12.90800000  *  28.73400000  *  -4.07300000  *
   406       O(ATOM    406  OG  SER A  59)   12.04800000  *  29.41800000  *  -4.96000000  *
   407       N(ATOM    407  N   MET A  60)   15.45500000  *  29.48900000  *  -5.57600000  *
   408       C(ATOM    408  CA  MET A  60)   16.22300000  *  30.25500000  *  -6.55800000  *
   409       C(ATOM    409  C   MET A  60)   17.13600000  *  29.33300000  *  -7.38500000  *
   410       O(ATOM    410  O   MET A  60)   17.38500000  *  29.58900000  *  -8.56800000  *
   411       C(ATOM    411  CB  MET A  60)   17.06900000  *  31.30800000  *  -5.84200000  *
   412       C(ATOM    412  CG  MET A  60)   16.23800000  *  32.29400000  *  -5.05400000  *
   413       S(ATOM    413  SD  MET A  60)   17.23200000  *  33.53900000  *  -4.24900000  *
   414       C(ATOM    414  CE  MET A  60)   17.39700000  *  32.77500000  *  -2.65900000  *
   415       N(ATOM    415  N   LEU A  61)   17.62600000  *  28.26600000  *  -6.74900000  *
   416       C(ATOM    416  CA  LEU A  61)   18.50900000  *  27.29600000  *  -7.39600000  *
   417       C(ATOM    417  C   LEU A  61)   17.73200000  *  26.51200000  *  -8.46000000  *
   418       O(ATOM    418  O   LEU A  61)   18.18700000  *  26.32500000  *  -9.59800000  *
   419       C(ATOM    419  CB  LEU A  61)   19.06700000  *  26.31600000  *  -6.35200000  *
   420       C(ATOM    420  CG  LEU A  61)   20.32100000  *  25.45300000  *  -6.60000000  *
   421       C(ATOM    421  CD1 LEU A  61)   20.30900000  *  24.27200000  *  -5.62300000  *
   422       C(ATOM    422  CD2 LEU A  61)   20.39100000  *  24.92500000  *  -8.01800000  *
   423       N(ATOM    423  N   LEU A  62)   16.55200000  *  26.05200000  *  -8.08300000  *
   424       C(ATOM    424  CA  LEU A  62)   15.74900000  *  25.28000000  *  -9.00100000  *
   425       C(ATOM    425  C   LEU A  62)   14.65800000  *  26.06100000  *  -9.75000000  *
   426       O(ATOM    426  O   LEU A  62)   13.45100000  *  25.86600000  *  -9.52900000  *
   427       C(ATOM    427  CB  LEU A  62)   15.19600000  *  24.06200000  *  -8.27600000  *
   428       C(ATOM    428  CG  LEU A  62)   16.27700000  *  23.07700000  *  -7.82200000  *
   429       C(ATOM    429  CD1 LEU A  62)   15.68400000  *  21.99100000  *  -6.94700000  *
   430       C(ATOM    430  CD2 LEU A  62)   16.94800000  *  22.47400000  *  -9.03800000  *
   431       N(ATOM    431  N   GLY A  63)   15.11400000  *  26.97100000  * -10.61300000  *
   432       C(ATOM    432  CA  GLY A  63)   14.22500000  *  27.76100000  * -11.44700000  *
   433       C(ATOM    433  C   GLY A  63)   13.38000000  *  28.88400000  * -10.87700000  *
   434       O(ATOM    434  O   GLY A  63)   13.20500000  *  29.90100000  * -11.55000000  *
   435       N(ATOM    435  N   TYR A  64)   12.84100000  *  28.71600000  *  -9.67100000  *
   436       C(ATOM    436  CA  TYR A  64)   11.98600000  *  29.74400000  *  -9.06400000  *
   437       C(ATOM    437  C   TYR A  64)   12.62000000  *  31.13300000  *  -8.94200000  *
   438       O(ATOM    438  O   TYR A  64)   13.83000000  *  31.29900000  *  -9.12700000  *
   439       C(ATOM    439  CB  TYR A  64)   11.47800000  *  29.29700000  *  -7.69700000  *
   440       C(ATOM    440  CG  TYR A  64)   10.78700000  *  27.95500000  *  -7.68300000  *
   441       C(ATOM    441  CD1 TYR A  64)   11.52300000  *  26.77500000  *  -7.57600000  *
   442       C(ATOM    442  CD2 TYR A  64)    9.39700000  *  27.86400000  *  -7.74900000  *
   443       C(ATOM    443  CE1 TYR A  64)   10.89600000  *  25.53600000  *  -7.53300000  *
   444       C(ATOM    444  CE2 TYR A  64)    8.75700000  *  26.62500000  *  -7.70500000  *
   445       C(ATOM    445  CZ  TYR A  64)    9.51500000  *  25.46500000  *  -7.59500000  *
   446       O(ATOM    446  OH  TYR A  64)    8.89300000  *  24.23900000  *  -7.53500000  *
   447       N(ATOM    447  N   GLY A  65)   11.78800000  *  32.11500000  *  -8.59400000  *
   448       C(ATOM    448  CA  GLY A  65)   12.23700000  *  33.49300000  *  -8.47500000  *
   449       C(ATOM    449  C   GLY A  65)   12.24600000  *  34.10100000  *  -9.86500000  *
   450       O(ATOM    450  O   GLY A  65)   13.10700000  *  33.75900000  * -10.67900000  *
   451       N(ATOM    451  N   LEU A  66)   11.28900000  *  34.98100000  * -10.15600000  *
   452       C(ATOM    452  CA  LEU A  66)   11.21200000  *  35.58800000  * -11.48300000  *
   453       C(ATOM    453  C   LEU A  66)   10.57600000  *  36.97400000  * -11.57000000  *
   454       O(ATOM    454  O   LEU A  66)   11.24700000  *  37.92600000  * -11.97400000  *
   455       C(ATOM    455  CB  LEU A  66)   10.51300000  *  34.63700000  * -12.46500000  *
   456       C(ATOM    456  CG  LEU A  66)   10.25300000  *  35.09900000  * -13.90000000  *
   457       C(ATOM    457  CD1 LEU A  66)   11.56200000  *  35.47100000  * -14.60000000  *
   458       C(ATOM    458  CD2 LEU A  66)    9.52300000  *  34.00200000  * -14.67300000  *
   459       N(ATOM    459  N   THR A  67)    9.29300000  *  37.07600000  * -11.20900000  *
   460       C(ATOM    460  CA  THR A  67)    8.50700000  *  38.32400000  * -11.26400000  *
   461       C(ATOM    461  C   THR A  67)    9.29400000  *  39.61000000  * -11.47700000  *
   462       O(ATOM    462  O   THR A  67)    9.87800000  *  40.16300000  * -10.55000000  *
   463       C(ATOM    463  CB  THR A  67)    7.58400000  *  38.48300000  * -10.04100000  *
   464       O(ATOM    464  OG1 THR A  67)    6.86800000  *  37.26000000  *  -9.81600000  *
   465       C(ATOM    465  CG2 THR A  67)    6.57400000  *  39.58000000  * -10.30900000  *
   466       N(ATOM    466  N   MET A  68)    9.25200000  *  40.08000000  * -12.71900000  *
   467       C(ATOM    467  CA  MET A  68)    9.95300000  *  41.26700000  * -13.21500000  *
   468       C(ATOM    468  C   MET A  68)   10.06500000  *  42.56200000  * -12.40600000  *
   469       O(ATOM    469  O   MET A  68)    9.43100000  *  42.74800000  * -11.37300000  *
   470       C(ATOM    470  CB  MET A  68)    9.42600000  *  41.61100000  * -14.61500000  *
   471       C(ATOM    471  CG  MET A  68)    7.96600000  *  42.06700000  * -14.66400000  *
   472       S(ATOM    472  SD  MET A  68)    6.74500000  *  40.76400000  * -14.41200000  *
   473       C(ATOM    473  CE  MET A  68)    6.08300000  *  40.61200000  * -16.06000000  *
   474       N(ATOM    474  N   VAL A  69)   10.90300000  *  43.44900000  * -12.93900000  *
   475       C(ATOM    475  CA  VAL A  69)   11.20900000  *  44.78100000  * -12.40400000  *
   476       C(ATOM    476  C   VAL A  69)   10.79500000  *  45.74500000  * -13.55200000  *
   477       O(ATOM    477  O   VAL A  69)    9.82000000  *  45.43400000  * -14.24600000  *
   478       C(ATOM    478  CB  VAL A  69)   12.72000000  *  44.88400000  * -12.06100000  *
   479       C(ATOM    479  CG1 VAL A  69)   13.01100000  *  44.19400000  * -10.76900000  *
   480       C(ATOM    480  CG2 VAL A  69)   13.56600000  *  44.30300000  * -13.19200000  *
   481       N(ATOM    481  N   PRO A  70)   11.45700000  *  46.91500000  * -13.74800000  *
   482       C(ATOM    482  CA  PRO A  70)   10.97000000  *  47.72900000  * -14.87000000  *
   483       C(ATOM    483  C   PRO A  70)   10.98300000  *  46.98700000  * -16.20400000  *
   484       O(ATOM    484  O   PRO A  70)   12.01800000  *  46.88300000  * -16.86400000  *
   485       C(ATOM    485  CB  PRO A  70)   11.91100000  *  48.94200000  * -14.86500000  *
   486       C(ATOM    486  CG  PRO A  70)   13.09900000  *  48.49600000  * -14.09800000  *
   487       C(ATOM    487  CD  PRO A  70)   12.49900000  *  47.67100000  * -13.02300000  *
   488       N(ATOM    488  N   PHE A  71)    9.81500000  *  46.46100000  * -16.56600000  *
   489       C(ATOM    489  CA  PHE A  71)    9.60800000  *  45.69900000  * -17.79500000  *
   490       C(ATOM    490  C   PHE A  71)   10.41000000  *  44.40500000  * -17.88300000  *
   491       O(ATOM    491  O   PHE A  71)   11.62800000  *  44.41600000  * -18.06200000  *
   492       C(ATOM    492  CB  PHE A  71)    9.84000000  *  46.56800000  * -19.03500000  *
   493       C(ATOM    493  CG  PHE A  71)    8.62200000  *  47.33400000  * -19.46800000  *
   494       C(ATOM    494  CD1 PHE A  71)    8.22300000  *  48.48000000  * -18.78600000  *
   495       C(ATOM    495  CD2 PHE A  71)    7.86200000  *  46.89700000  * -20.55100000  *
   496       C(ATOM    496  CE1 PHE A  71)    7.08200000  *  49.18000000  * -19.17400000  *
   497       C(ATOM    497  CE2 PHE A  71)    6.72100000  *  47.58800000  * -20.94700000  *
   498       C(ATOM    498  CZ  PHE A  71)    6.33000000  *  48.73300000  * -20.25800000  *
   499       N(ATOM    499  N   GLY A  72)    9.70000000  *  43.28900000  * -17.74900000  *
   500       C(ATOM    500  CA  GLY A  72)   10.32900000  *  41.98400000  * -17.82400000  *
   501       C(ATOM    501  C   GLY A  72)   10.03700000  *  41.29200000  * -19.14100000  *
   502       O(ATOM    502  O   GLY A  72)    9.23600000  *  41.78100000  * -19.94700000  *
   503       N(ATOM    503  N   GLY A  73)   10.67500000  *  40.14400000  * -19.35500000  *
   504       C(ATOM    504  CA  GLY A  73)   10.47900000  *  39.40300000  * -20.58700000  *
   505       C(ATOM    505  C   GLY A  73)   11.44800000  *  39.85800000  * -21.66100000  *
   506       O(ATOM    506  O   GLY A  73)   11.83000000  *  39.08000000  * -22.53600000  *
   507       N(ATOM    507  N   GLU A  74)   11.82800000  *  41.13100000  * -21.60200000  *
   508       C(ATOM    508  CA  GLU A  74)   12.76600000  *  41.69800000  * -22.55800000  *
   509       C(ATOM    509  C   GLU A  74)   14.21200000  *  41.51500000  * -22.09600000  *
   510       O(ATOM    510  O   GLU A  74)   15.07000000  *  41.11800000  * -22.88900000  *
   511       C(ATOM    511  CB  GLU A  74)   12.45300000  *  43.17800000  * -22.80500000  *
   512       C(ATOM    512  CG  GLU A  74)   11.14500000  *  43.40700000  * -23.55800000  *
   513       C(ATOM    513  CD  GLU A  74)   10.85700000  *  44.87300000  * -23.84600000  *
   514       O(ATOM    514  OE1 GLU A  74)   11.80700000  *  45.63500000  * -24.12400000  *
   515       O(ATOM    515  OE2 GLU A  74)    9.66900000  *  45.26100000  * -23.80900000  *
   516       N(ATOM    516  N   GLN A  75)   14.47500000  *  41.76200000  * -20.81200000  *
   517       C(ATOM    517  CA  GLN A  75)   15.82900000  *  41.61700000  * -20.28000000  *
   518       C(ATOM    518  C   GLN A  75)   15.95400000  *  41.33300000  * -18.78300000  *
   519       O(ATOM    519  O   GLN A  75)   16.15000000  *  40.18600000  * -18.37900000  *
   520       C(ATOM    520  CB  GLN A  75)   16.67100000  *  42.85000000  * -20.62400000  *
   521       C(ATOM    521  CG  GLN A  75)   18.10900000  *  42.76800000  * -20.12400000  *
   522       C(ATOM    522  CD  GLN A  75)   18.86900000  *  44.06800000  * -20.28500000  *
   523       O(ATOM    523  OE1 GLN A  75)   18.29600000  *  45.15500000  * -20.18900000  *
   524       N(ATOM    524  NE2 GLN A  75)   20.17100000  *  43.96300000  * -20.51800000  *
   525       N(ATOM    525  N   ASN A  76)   15.85700000  *  42.39300000  * -17.98200000  *
   526       C(ATOM    526  CA  ASN A  76)   16.00400000  *  42.35800000  * -16.52200000  *
   527       C(ATOM    527  C   ASN A  76)   15.44900000  *  41.17800000  * -15.70500000  *
   528       O(ATOM    528  O   ASN A  76)   14.26200000  *  41.13700000  * -15.37700000  *
   529       C(ATOM    529  CB  ASN A  76)   15.52400000  *  43.68900000  * -15.92400000  *
   530       C(ATOM    530  CG  ASN A  76)   16.42300000  *  44.86600000  * -16.30300000  *
   531       O(ATOM    531  OD1 ASN A  76)   17.52500000  *  44.68600000  * -16.83800000  *
   532       N(ATOM    532  ND2 ASN A  76)   15.95800000  *  46.07800000  * -16.01500000  *
   533       N(ATOM    533  N   PRO A  77)   16.33100000  *  40.23000000  * -15.32700000  *
   534       C(ATOM    534  CA  PRO A  77)   16.01300000  *  39.03000000  * -14.54300000  *
   535       C(ATOM    535  C   PRO A  77)   16.06100000  *  39.31000000  * -13.03600000  *
   536       O(ATOM    536  O   PRO A  77)   17.03100000  *  39.89500000  * -12.54300000  *
   537       C(ATOM    537  CB  PRO A  77)   17.11200000  *  38.06400000  * -14.96900000  *
   538       C(ATOM    538  CG  PRO A  77)   18.29300000  *  38.97000000  * -15.09900000  *
   539       C(ATOM    539  CD  PRO A  77)   17.73600000  *  40.20100000  * -15.77900000  *
   540       N(ATOM    540  N   ILE A  78)   15.03200000  *  38.87300000  * -12.30700000  *
   541       C(ATOM    541  CA  ILE A  78)   14.94400000  *  39.11000000  * -10.86100000  *
   542       C(ATOM    542  C   ILE A  78)   14.41700000  *  37.90100000  * -10.09000000  *
   543       O(ATOM    543  O   ILE A  78)   13.86300000  *  36.97400000  * -10.68000000  *
   544       C(ATOM    544  CB  ILE A  78)   14.02000000  *  40.32300000  * -10.57400000  *
   545       C(ATOM    545  CG1 ILE A  78)   14.58100000  *  41.57400000  * -11.24700000  *
   546       C(ATOM    546  CG2 ILE A  78)   13.86100000  *  40.56200000  *  -9.07800000  *
   547       C(ATOM    547  CD1 ILE A  78)   15.90000000  *  42.07500000  * -10.67100000  *
   548       N(ATOM    548  N   TYR A  79)   14.61400000  *  37.91500000  *  -8.77000000  *
   549       C(ATOM    549  CA  TYR A  79)   14.15200000  *  36.84500000  *  -7.88100000  *
   550       C(ATOM    550  C   TYR A  79)   13.14500000  *  37.36900000  *  -6.84700000  *
   551       O(ATOM    551  O   TYR A  79)   13.45800000  *  38.27000000  *  -6.05900000  *
   552       C(ATOM    552  CB  TYR A  79)   15.33700000  *  36.19700000  *  -7.15400000  *
   553       C(ATOM    553  CG  TYR A  79)   16.28000000  *  35.43900000  *  -8.05500000  *
   554       C(ATOM    554  CD1 TYR A  79)   17.02800000  *  36.09600000  *  -9.02900000  *
   555       C(ATOM    555  CD2 TYR A  79)   16.43100000  *  34.06500000  *  -7.92900000  *
   556       C(ATOM    556  CE1 TYR A  79)   17.90000000  *  35.40000000  *  -9.85200000  *
   557       C(ATOM    557  CE2 TYR A  79)   17.29900000  *  33.35900000  *  -8.74700000  *
   558       C(ATOM    558  CZ  TYR A  79)   18.03100000  *  34.03300000  *  -9.70500000  *
   559       O(ATOM    559  OH  TYR A  79)   18.89900000  *  33.33700000  * -10.51400000  *
   560       N(ATOM    560  N   TRP A  80)   11.93000000  *  36.82100000  *  -6.87300000  *
   561       C(ATOM    561  CA  TRP A  80)   10.89400000  *  37.22700000  *  -5.92500000  *
   562       C(ATOM    562  C   TRP A  80)   10.92500000  *  36.32800000  *  -4.70000000  *
   563       O(ATOM    563  O   TRP A  80)   10.37100000  *  36.66700000  *  -3.65100000  *
   564       C(ATOM    564  CB  TRP A  80)    9.49600000  *  37.20900000  *  -6.56800000  *
   565       C(ATOM    565  CG  TRP A  80)    8.95700000  *  35.85100000  *  -6.93100000  *
   566       C(ATOM    566  CD1 TRP A  80)    8.88100000  *  35.31600000  *  -8.17800000  *
   567       C(ATOM    567  CD2 TRP A  80)    8.35700000  *  34.89200000  *  -6.04700000  *
   568       N(ATOM    568  NE1 TRP A  80)    8.26600000  *  34.08900000  *  -8.13400000  *
   569       C(ATOM    569  CE2 TRP A  80)    7.93400000  *  33.80400000  *  -6.83600000  *
   570       C(ATOM    570  CE3 TRP A  80)    8.12900000  *  34.84900000  *  -4.66400000  *
   571       C(ATOM    571  CZ2 TRP A  80)    7.30000000  *  32.68200000  *  -6.29000000  *
   572       C(ATOM    572  CZ3 TRP A  80)    7.50000000  *  33.73400000  *  -4.12500000  *
   573       C(ATOM    573  CH2 TRP A  80)    7.09200000  *  32.66800000  *  -4.93800000  *
   574       N(ATOM    574  N   ALA A  81)   11.55500000  *  35.16500000  *  -4.86400000  *
   575       C(ATOM    575  CA  ALA A  81)   11.69400000  *  34.17600000  *  -3.80500000  *
   576       C(ATOM    576  C   ALA A  81)   12.44300000  *  34.76300000  *  -2.61300000  *
   577       O(ATOM    577  O   ALA A  81)   12.24400000  *  34.34200000  *  -1.47500000  *
   578       C(ATOM    578  CB  ALA A  81)   12.42100000  *  32.96200000  *  -4.33600000  *
   579       N(ATOM    579  N   ARG A  82)   13.28900000  *  35.75400000  *  -2.87800000  *
   580       C(ATOM    580  CA  ARG A  82)   14.05900000  *  36.40700000  *  -1.82800000  *
   581       C(ATOM    581  C   ARG A  82)   13.14900000  *  37.10100000  *  -0.79900000  *
   582       O(ATOM    582  O   ARG A  82)   13.17300000  *  36.76400000  *   0.38300000  *
   583       C(ATOM    583  CB  ARG A  82)   15.06500000  *  37.38400000  *  -2.44500000  *
   584       C(ATOM    584  CG  ARG A  82)   16.04500000  *  36.72200000  *  -3.41500000  *
   585       C(ATOM    585  CD  ARG A  82)   17.08400000  *  37.70300000  *  -3.94200000  *
   586       N(ATOM    586  NE  ARG A  82)   17.92500000  *  37.11800000  *  -4.98800000  *
   587       C(ATOM    587  CZ  ARG A  82)   19.15900000  *  36.65200000  *  -4.80200000  *
   588       N(ATOM    588  NH1 ARG A  82)   19.71100000  *  36.68800000  *  -3.59900000  *
   589       N(ATOM    589  NH2 ARG A  82)   19.86300000  *  36.17900000  *  -5.82900000  *
   590       N(ATOM    590  N   TYR A  83)   12.32300000  *  38.04200000  *  -1.24600000  *
   591       C(ATOM    591  CA  TYR A  83)   11.41000000  *  38.73500000  *  -0.33300000  *
   592       C(ATOM    592  C   TYR A  83)   10.43800000  *  37.74500000  *   0.31700000  *
   593       O(ATOM    593  O   TYR A  83)    9.96200000  *  37.96000000  *   1.43700000  *
   594       C(ATOM    594  CB  TYR A  83)   10.63300000  *  39.83200000  *  -1.07300000  *
   595       C(ATOM    595  CG  TYR A  83)   11.55300000  *  40.83200000  *  -1.70900000  *
   596       C(ATOM    596  CD1 TYR A  83)   12.07900000  *  40.59900000  *  -2.97900000  *
   597       C(ATOM    597  CD2 TYR A  83)   11.99400000  *  41.95200000  *  -1.00400000  *
   598       C(ATOM    598  CE1 TYR A  83)   13.03600000  *  41.44700000  *  -3.53100000  *
   599       C(ATOM    599  CE2 TYR A  83)   12.95900000  *  42.81200000  *  -1.55100000  *
   600       C(ATOM    600  CZ  TYR A  83)   13.47400000  *  42.54200000  *  -2.81200000  *
   601       O(ATOM    601  OH  TYR A  83)   14.46100000  *  43.30800000  *  -3.35200000  *
   602       N(ATOM    602  N   ALA A  84)   10.17900000  *  36.64400000  *  -0.38700000  *
   603       C(ATOM    603  CA  ALA A  84)    9.28000000  *  35.60800000  *   0.10300000  *
   604       C(ATOM    604  C   ALA A  84)    9.83900000  *  35.00100000  *   1.38800000  *
   605       O(ATOM    605  O   ALA A  84)    9.11800000  *  34.29700000  *   2.10300000  *
   606       C(ATOM    606  CB  ALA A  84)    9.07200000  *  34.52900000  *  -0.96300000  *
   607       N(ATOM    607  N   ASP A  85)   11.11800000  *  35.23400000  *   1.66000000  *
   608       C(ATOM    608  CA  ASP A  85)   11.69700000  *  34.70800000  *   2.87700000  *
   609       C(ATOM    609  C   ASP A  85)   12.06100000  *  35.79000000  *   3.88500000  *
   610       O(ATOM    610  O   ASP A  85)   11.92200000  *  35.57900000  *   5.08800000  *
   611       C(ATOM    611  CB  ASP A  85)   12.87000000  *  33.75800000  *   2.60300000  *
   612       C(ATOM    612  CG  ASP A  85)   14.07400000  *  34.44700000  *   1.98100000  *
   613       O(ATOM    613  OD1 ASP A  85)   14.92200000  *  34.94300000  *   2.75200000  *
   614       O(ATOM    614  OD2 ASP A  85)   14.18000000  *  34.44500000  *   0.73000000  *
   615       N(ATOM    615  N   TRP A  86)   12.47500000  *  36.96600000  *   3.39000000  *
   616       C(ATOM    616  CA  TRP A  86)   12.85200000  *  38.10800000  *   4.24100000  *
   617       C(ATOM    617  C   TRP A  86)   11.63000000  *  38.58300000  *   5.03000000  *
   618       O(ATOM    618  O   TRP A  86)   11.74700000  *  39.07700000  *   6.15300000  *
   619       C(ATOM    619  CB  TRP A  86)   13.42700000  *  39.25700000  *   3.39100000  *
   620       C(ATOM    620  CG  TRP A  86)   14.75900000  *  38.92000000  *   2.72400000  *
   621       C(ATOM    621  CD1 TRP A  86)   15.53300000  *  37.82000000  *   2.95800000  *
   622       C(ATOM    622  CD2 TRP A  86)   15.44700000  *  39.68100000  *   1.71400000  *
   623       N(ATOM    623  NE1 TRP A  86)   16.64800000  *  37.84100000  *   2.15300000  *
   624       C(ATOM    624  CE2 TRP A  86)   16.62200000  *  38.97200000  *   1.38100000  *
   625       C(ATOM    625  CE3 TRP A  86)   15.18300000  *  40.89000000  *   1.05800000  *
   626       C(ATOM    626  CZ2 TRP A  86)   17.53300000  *  39.42900000  *   0.42000000  *
   627       C(ATOM    627  CZ3 TRP A  86)   16.09100000  *  41.34400000  *   0.10100000  *
   628       C(ATOM    628  CH2 TRP A  86)   17.25400000  *  40.61000000  *  -0.20800000  *
   629       N(ATOM    629  N   LEU A  87)   10.45400000  *  38.41200000  *   4.43000000  *
   630       C(ATOM    630  CA  LEU A  87)    9.18600000  *  38.76700000  *   5.05900000  *
   631       C(ATOM    631  C   LEU A  87)    8.89900000  *  37.67400000  *   6.10100000  *
   632       O(ATOM    632  O   LEU A  87)    8.19400000  *  37.90400000  *   7.09000000  *
   633       C(ATOM    633  CB  LEU A  87)    8.08700000  *  38.77300000  *   4.00200000  *
   634       C(ATOM    634  CG  LEU A  87)    6.64800000  *  39.11200000  *   4.36900000  *
   635       C(ATOM    635  CD1 LEU A  87)    6.48100000  *  40.61600000  *   4.42700000  *
   636       C(ATOM    636  CD2 LEU A  87)    5.72700000  *  38.53200000  *   3.30900000  *
   637       N(ATOM    637  N   PHE A  88)    9.46700000  *  36.48800000  *   5.86300000  *
   638       C(ATOM    638  CA  PHE A  88)    9.31700000  *  35.32600000  *   6.74500000  *
   639       C(ATOM    639  C   PHE A  88)   10.61700000  *  34.94300000  *   7.46100000  *
   640       O(ATOM    640  O   PHE A  88)   10.91700000  *  33.76100000  *   7.61300000  *
   641       C(ATOM    641  CB  PHE A  88)    8.80600000  *  34.11700000  *   5.95200000  *
   642       C(ATOM    642  CG  PHE A  88)    7.32600000  *  34.12900000  *   5.70500000  *
   643       C(ATOM    643  CD1 PHE A  88)    6.46400000  *  34.82000000  *   6.55000000  *
   644       C(ATOM    644  CD2 PHE A  88)    6.79000000  *  33.42500000  *   4.64000000  *
   645       C(ATOM    645  CE1 PHE A  88)    5.09600000  *  34.80900000  *   6.34100000  *
   646       C(ATOM    646  CE2 PHE A  88)    5.42100000  *  33.40700000  *   4.42300000  *
   647       C(ATOM    647  CZ  PHE A  88)    4.57500000  *  34.10200000  *   5.28000000  *
   648       N(ATOM    648  N   THR A  89)   11.41100000  *  35.94300000  *   7.84000000  *
   649       C(ATOM    649  CA  THR A  89)   12.66300000  *  35.70600000  *   8.56000000  *
   650       C(ATOM    650  C   THR A  89)   12.95500000  *  36.85200000  *   9.51700000  *
   651       O(ATOM    651  O   THR A  89)   13.23600000  *  36.64300000  *  10.69900000  *
   652       C(ATOM    652  CB  THR A  89)   13.86000000  *  35.54500000  *   7.62100000  *
   653       O(ATOM    653  OG1 THR A  89)   13.72900000  *  34.32200000  *   6.88800000  *
   654       C(ATOM    654  CG2 THR A  89)   15.15100000  *  35.52000000  *   8.42300000  *
   655       N(ATOM    655  N   THR A  90)   12.87000000  *  38.06600000  *   8.99600000  *
   656       C(ATOM    656  CA  THR A  90)   13.11200000  *  39.25900000  *   9.79100000  *
   657       C(ATOM    657  C   THR A  90)   12.15400000  *  39.43400000  *  10.99400000  *
   658       O(ATOM    658  O   THR A  90)   12.59100000  *  39.85700000  *  12.06100000  *
   659       C(ATOM    659  CB  THR A  90)   13.05600000  *  40.51700000  *   8.91200000  *
   660       O(ATOM    660  OG1 THR A  90)   13.89300000  *  40.35200000  *   7.75800000  *
   661       C(ATOM    661  CG2 THR A  90)   13.52100000  *  41.71700000  *   9.69800000  *
   662       N(ATOM    662  N   PRO A  91)   10.84700000  *  39.10600000  *  10.84200000  *
   663       C(ATOM    663  CA  PRO A  91)    9.88800000  *  39.25700000  *  11.95000000  *
   664       C(ATOM    664  C   PRO A  91)   10.11600000  *  38.30100000  *  13.11700000  *
   665       O(ATOM    665  O   PRO A  91)    9.82200000  *  38.63500000  *  14.25900000  *
   666       C(ATOM    666  CB  PRO A  91)    8.53400000  *  38.95700000  *  11.29000000  *
   667       C(ATOM    667  CG  PRO A  91)    8.76900000  *  39.21600000  *   9.83000000  *
   668       C(ATOM    668  CD  PRO A  91)   10.14200000  *  38.65600000  *   9.62300000  *
   669       N(ATOM    669  N   LEU A  92)   10.59200000  *  37.09800000  *  12.81000000  *
   670       C(ATOM    670  CA  LEU A  92)   10.85000000  *  36.08100000  *  13.82600000  *
   671       C(ATOM    671  C   LEU A  92)   12.20900000  *  36.24900000  *  14.49300000  *
   672       O(ATOM    672  O   LEU A  92)   12.38400000  *  35.87400000  *  15.65600000  *
   673       C(ATOM    673  CB  LEU A  92)   10.72900000  *  34.67100000  *  13.22900000  *
   674       C(ATOM    674  CG  LEU A  92)    9.33900000  *  34.04500000  *  13.06800000  *
   675       C(ATOM    675  CD1 LEU A  92)    8.48600000  *  34.85200000  *  12.09700000  *
   676       C(ATOM    676  CD2 LEU A  92)    9.50000000  *  32.60800000  *  12.58100000  *
   677       N(ATOM    677  N   LEU A  93)   13.16900000  *  36.79000000  *  13.74400000  *
   678       C(ATOM    678  CA  LEU A  93)   14.51600000  *  37.02800000  *  14.25400000  *
   679       C(ATOM    679  C   LEU A  93)   14.51400000  *  38.17700000  *  15.28500000  *
   680       O(ATOM    680  O   LEU A  93)   15.41900000  *  38.28900000  *  16.12600000  *
   681       C(ATOM    681  CB  LEU A  93)   15.45000000  *  37.35700000  *  13.09000000  *
   682       C(ATOM    682  CG  LEU A  93)   16.84200000  *  36.73100000  *  13.14900000  *
   683       C(ATOM    683  CD1 LEU A  93)   16.69200000  *  35.22100000  *  13.18900000  *
   684       C(ATOM    684  CD2 LEU A  93)   17.66100000  *  37.16000000  *  11.94400000  *
   685       N(ATOM    685  N   LEU A  94)   13.50900000  *  39.04500000  *  15.18600000  *
   686       C(ATOM    686  CA  LEU A  94)   13.34700000  *  40.15300000  *  16.11300000  *
   687       C(ATOM    687  C   LEU A  94)   12.49400000  *  39.66500000  *  17.26600000  *
   688       O(ATOM    688  O   LEU A  94)   12.47200000  *  40.26400000  *  18.33500000  *
   689       C(ATOM    689  CB  LEU A  94)   12.67300000  *  41.34600000  *  15.43500000  *
   690       C(ATOM    690  CG  LEU A  94)   13.59200000  *  42.49400000  *  15.00900000  *
   691       C(ATOM    691  CD1 LEU A  94)   14.78400000  *  41.94200000  *  14.25100000  *
   692       C(ATOM    692  CD2 LEU A  94)   12.82700000  *  43.49100000  *  14.16700000  *
   693       N(ATOM    693  N   LEU A  95)   11.77200000  *  38.57700000  *  17.03300000  *
   694       C(ATOM    694  CA  LEU A  95)   10.93300000  *  37.99100000  *  18.06800000  *
   695       C(ATOM    695  C   LEU A  95)   11.85000000  *  37.25300000  *  19.04800000  *
   696       O(ATOM    696  O   LEU A  95)   11.44600000  *  36.90900000  *  20.16200000  *
   697       C(ATOM    697  CB  LEU A  95)    9.91000000  *  37.02900000  *  17.44800000  *
   698       C(ATOM    698  CG  LEU A  95)    8.69100000  *  36.63000000  *  18.28500000  *
   699       C(ATOM    699  CD1 LEU A  95)    7.98400000  *  37.87200000  *  18.82600000  *
   700       C(ATOM    700  CD2 LEU A  95)    7.73600000  *  35.81000000  *  17.42900000  *
   701       N(ATOM    701  N   ASP A  96)   13.09100000  *  37.02800000  *  18.62400000  *
   702       C(ATOM    702  CA  ASP A  96)   14.07000000  *  36.34900000  *  19.45800000  *
   703       C(ATOM    703  C   ASP A  96)   14.88800000  *  37.38000000  *  20.23300000  *
   704       O(ATOM    704  O   ASP A  96)   15.43800000  *  37.07200000  *  21.29500000  *
   705       C(ATOM    705  CB  ASP A  96)   14.98200000  *  35.45900000  *  18.60800000  *
   706       C(ATOM    706  CG  ASP A  96)   15.53900000  *  34.28100000  *  19.39200000  *
   707       O(ATOM    707  OD1 ASP A  96)   16.01300000  *  34.49300000  *  20.52000000  *
   708       O(ATOM    708  OD2 ASP A  96)   15.49800000  *  33.14100000  *  18.88800000  *
   709       N(ATOM    709  N   LEU A  97)   14.97600000  *  38.59800000  *  19.69200000  *
   710       C(ATOM    710  CA  LEU A  97)   15.71100000  *  39.67900000  *  20.34600000  *
   711       C(ATOM    711  C   LEU A  97)   14.78700000  *  40.60200000  *  21.13400000  *
   712       O(ATOM    712  O   LEU A  97)   15.25000000  *  41.52300000  *  21.79300000  *
   713       C(ATOM    713  CB  LEU A  97)   16.57500000  *  40.46900000  *  19.34800000  *
   714       C(ATOM    714  CG  LEU A  97)   15.97800000  *  41.20200000  *  18.14000000  *
   715       C(ATOM    715  CD1 LEU A  97)   15.18500000  *  42.43300000  *  18.55500000  *
   716       C(ATOM    716  CD2 LEU A  97)   17.10700000  *  41.62100000  *  17.21300000  *
   717       N(ATOM    717  N   ALA A  98)   13.47900000  *  40.37200000  *  21.03100000  *
   718       C(ATOM    718  CA  ALA A  98)   12.49000000  *  41.16300000  *  21.77300000  *
   719       C(ATOM    719  C   ALA A  98)   12.11400000  *  40.39000000  *  23.04300000  *
   720       O(ATOM    720  O   ALA A  98)   11.67400000  *  40.97800000  *  24.04400000  *
   721       C(ATOM    721  CB  ALA A  98)   11.26500000  *  41.42200000  *  20.92900000  *
   722       N(ATOM    722  N   LEU A  99)   12.25000000  *  39.06500000  *  22.97600000  *
   723       C(ATOM    723  CA  LEU A  99)   11.96100000  *  38.22300000  *  24.12400000  *
   724       C(ATOM    724  C   LEU A  99)   13.18200000  *  38.22500000  *  25.03500000  *
   725       O(ATOM    725  O   LEU A  99)   13.06000000  *  38.04000000  *  26.24500000  *
   726       C(ATOM    726  CB  LEU A  99)   11.59400000  *  36.79400000  *  23.70000000  *
   727       C(ATOM    727  CG  LEU A  99)   10.10200000  *  36.44300000  *  23.51500000  *
   728       C(ATOM    728  CD1 LEU A  99)    9.33400000  *  36.67300000  *  24.82200000  *
   729       C(ATOM    729  CD2 LEU A  99)    9.45700000  *  37.23900000  *  22.37400000  *
   730       N(ATOM    730  N   LEU A 100)   14.35500000  *  38.47700000  *  24.45600000  *
   731       C(ATOM    731  CA  LEU A 100)   15.59400000  *  38.52700000  *  25.23100000  *
   732       C(ATOM    732  C   LEU A 100)   15.51300000  *  39.76600000  *  26.10200000  *
   733       O(ATOM    733  O   LEU A 100)   15.76100000  *  39.70500000  *  27.30500000  *
   734       C(ATOM    734  CB  LEU A 100)   16.82100000  *  38.62200000  *  24.31500000  *
   735       C(ATOM    735  CG  LEU A 100)   18.13600000  *  38.01100000  *  24.82000000  *
   736       C(ATOM    736  CD1 LEU A 100)   18.04200000  *  36.48100000  *  24.76300000  *
   737       C(ATOM    737  CD2 LEU A 100)   19.30800000  *  38.49500000  *  23.97600000  *
   738       N(ATOM    738  N   VAL A 101)   15.10300000  *  40.87200000  *  25.48000000  *
   739       C(ATOM    739  CA  VAL A 101)   14.94600000  *  42.17400000  *  26.13900000  *
   740       C(ATOM    740  C   VAL A 101)   13.68700000  *  42.18700000  *  27.02300000  *
   741       O(ATOM    741  O   VAL A 101)   13.41400000  *  43.15900000  *  27.73400000  *
   742       C(ATOM    742  CB  VAL A 101)   14.86700000  *  43.31100000  *  25.07400000  *
   743       C(ATOM    743  CG1 VAL A 101)   14.84400000  *  44.69100000  *  25.72800000  *
   744       C(ATOM    744  CG2 VAL A 101)   16.03700000  *  43.20600000  *  24.13000000  *
   745       N(ATOM    745  N   ASP A 102)   12.92100000  *  41.10000000  *  26.96300000  *
   746       C(ATOM    746  CA  ASP A 102)   11.70300000  *  40.95300000  *  27.75900000  *
   747       C(ATOM    747  C   ASP A 102)   10.79300000  *  42.18500000  *  27.61600000  *
   748       O(ATOM    748  O   ASP A 102)   10.24400000  *  42.68400000  *  28.60000000  *
   749       C(ATOM    749  CB  ASP A 102)   12.06200000  *  40.72500000  *  29.24100000  *
   750       C(ATOM    750  CG  ASP A 102)   13.04000000  *  39.55800000  *  29.45600000  *
   751       O(ATOM    751  OD1 ASP A 102)   12.62500000  *  38.38500000  *  29.33000000  *
   752       O(ATOM    752  OD2 ASP A 102)   14.21900000  *  39.81500000  *  29.78900000  *
   753       N(ATOM    753  N   ALA A 103)   10.64800000  *  42.66800000  *  26.38300000  *
   754       C(ATOM    754  CA  ALA A 103)    9.82000000  *  43.83900000  *  26.08300000  *
   755       C(ATOM    755  C   ALA A 103)    8.32100000  *  43.54400000  *  26.08000000  *
   756       O(ATOM    756  O   ALA A 103)    7.90000000  *  42.39700000  *  25.93400000  *
   757       C(ATOM    757  CB  ALA A 103)   10.23100000  *  44.43600000  *  24.75100000  *
   758       N(ATOM    758  N   ASP A 104)    7.51800000  *  44.59500000  *  26.22700000  *
   759       C(ATOM    759  CA  ASP A 104)    6.05900000  *  44.47700000  *  26.24200000  *
   760       C(ATOM    760  C   ASP A 104)    5.52000000  *  44.19900000  *  24.83400000  *
   761       O(ATOM    761  O   ASP A 104)    6.19400000  *  44.49700000  *  23.84100000  *
   762       C(ATOM    762  CB  ASP A 104)    5.44600000  *  45.76800000  *  26.80400000  *
   763       C(ATOM    763  CG  ASP A 104)    3.93700000  *  45.67900000  *  26.98300000  *
   764       O(ATOM    764  OD1 ASP A 104)    3.47500000  *  44.83200000  *  27.77500000  *
   765       O(ATOM    765  OD2 ASP A 104)    3.21500000  *  46.46100000  *  26.33100000  *
   766       N(ATOM    766  N   GLN A 105)    4.30900000  *  43.64100000  *  24.75300000  *
   767       C(ATOM    767  CA  GLN A 105)    3.68500000  *  43.33000000  *  23.46500000  *
   768       C(ATOM    768  C   GLN A 105)    3.53100000  *  44.54900000  *  22.57000000  *
   769       O(ATOM    769  O   GLN A 105)    3.30800000  *  44.41100000  *  21.36700000  *
   770       C(ATOM    770  CB  GLN A 105)    2.31600000  *  42.67500000  *  23.64900000  *
   771       C(ATOM    771  CG  GLN A 105)    2.36500000  *  41.22300000  *  24.11600000  *
   772       C(ATOM    772  CD  GLN A 105)    0.99400000  *  40.55600000  *  24.12100000  *
   773       O(ATOM    773  OE1 GLN A 105)    0.23800000  *  40.65500000  *  25.09700000  *
   774       N(ATOM    774  NE2 GLN A 105)    0.66900000  *  39.86900000  *  23.02700000  *
   775       N(ATOM    775  N   GLY A 106)    3.65600000  *  45.73400000  *  23.16300000  *
   776       C(ATOM    776  CA  GLY A 106)    3.53400000  *  46.97100000  *  22.41500000  *
   777       C(ATOM    777  C   GLY A 106)    4.61400000  *  47.15800000  *  21.36200000  *
   778       O(ATOM    778  O   GLY A 106)    4.32500000  *  47.16100000  *  20.16000000  *
   779       N(ATOM    779  N   THR A 107)    5.86400000  *  47.28300000  *  21.80100000  *
   780       C(ATOM    780  CA  THR A 107)    6.97100000  *  47.48900000  *  20.87300000  *
   781       C(ATOM    781  C   THR A 107)    7.22800000  *  46.28700000  *  19.95500000  *
   782       O(ATOM    782  O   THR A 107)    7.84600000  *  46.42500000  *  18.90400000  *
   783       C(ATOM    783  CB  THR A 107)    8.25800000  *  47.86200000  *  21.62000000  *
   784       O(ATOM    784  OG1 THR A 107)    9.24400000  *  48.31900000  *  20.68400000  *
   785       C(ATOM    785  CG2 THR A 107)    8.79100000  *  46.66200000  *  22.38000000  *
   786       N(ATOM    786  N   ILE A 108)    6.76400000  *  45.11200000  *  20.36300000  *
   787       C(ATOM    787  CA  ILE A 108)    6.93000000  *  43.90400000  *  19.56600000  *
   788       C(ATOM    788  C   ILE A 108)    5.99600000  *  43.98300000  *  18.35900000  *
   789       O(ATOM    789  O   ILE A 108)    6.40700000  *  43.72500000  *  17.22300000  *
   790       C(ATOM    790  CB  ILE A 108)    6.62700000  *  42.62800000  *  20.41100000  *
   791       C(ATOM    791  CG1 ILE A 108)    7.70800000  *  42.44400000  *  21.47500000  *
   792       C(ATOM    792  CG2 ILE A 108)    6.53500000  *  41.37900000  *  19.52700000  *
   793       C(ATOM    793  CD1 ILE A 108)    7.54900000  *  41.18100000  *  22.27600000  *
   794       N(ATOM    794  N   LEU A 109)    4.75600000  *  44.39400000  *  18.61500000  *
   795       C(ATOM    795  CA  LEU A 109)    3.73900000  *  44.51900000  *  17.57700000  *
   796       C(ATOM    796  C   LEU A 109)    4.16000000  *  45.48300000  *  16.46800000  *
   797       O(ATOM    797  O   LEU A 109)    4.14000000  *  45.12500000  *  15.29100000  *
   798       C(ATOM    798  CB  LEU A 109)    2.42300000  *  44.98800000  *  18.19500000  *
   799       C(ATOM    799  CG  LEU A 109)    1.12400000  *  44.67800000  *  17.45000000  *
   800       C(ATOM    800  CD1 LEU A 109)   -0.05100000  *  44.94800000  *  18.38000000  *
   801       C(ATOM    801  CD2 LEU A 109)    1.00500000  *  45.48800000  *  16.17400000  *
   802       N(ATOM    802  N   ALA A 110)    4.51000000  *  46.71200000  *  16.84000000  *
   803       C(ATOM    803  CA  ALA A 110)    4.93000000  *  47.71300000  *  15.86100000  *
   804       C(ATOM    804  C   ALA A 110)    6.07900000  *  47.14000000  *  15.05100000  *
   805       O(ATOM    805  O   ALA A 110)    6.12900000  *  47.29100000  *  13.84200000  *
   806       C(ATOM    806  CB  ALA A 110)    5.36600000  *  48.99400000  *  16.56200000  *
   807       N(ATOM    807  N   LEU A 111)    6.95100000  *  46.41000000  *  15.73700000  *
   808       C(ATOM    808  CA  LEU A 111)    8.12200000  *  45.77100000  *  15.15000000  *
   809       C(ATOM    809  C   LEU A 111)    7.79900000  *  44.73000000  *  14.05000000  *
   810       O(ATOM    810  O   LEU A 111)    8.61100000  *  44.50700000  *  13.14300000  *
   811       C(ATOM    811  CB  LEU A 111)    8.95700000  *  45.18400000  *  16.29900000  *
   812       C(ATOM    812  CG  LEU A 111)   10.14900000  *  44.23900000  *  16.19400000  *
   813       C(ATOM    813  CD1 LEU A 111)   11.18900000  *  44.62300000  *  17.24700000  *
   814       C(ATOM    814  CD2 LEU A 111)    9.66500000  *  42.80900000  *  16.40500000  *
   815       N(ATOM    815  N   VAL A 112)    6.61700000  *  44.11100000  *  14.11900000  *
   816       C(ATOM    816  CA  VAL A 112)    6.20400000  *  43.13700000  *  13.10500000  *
   817       C(ATOM    817  C   VAL A 112)    5.57000000  *  43.90100000  *  11.93600000  *
   818       O(ATOM    818  O   VAL A 112)    5.87900000  *  43.64600000  *  10.76400000  *
   819       C(ATOM    819  CB  VAL A 112)    5.15900000  *  42.11900000  *  13.64900000  *
   820       C(ATOM    820  CG1 VAL A 112)    5.25500000  *  40.80100000  *  12.88700000  *
   821       C(ATOM    821  CG2 VAL A 112)    5.35200000  *  41.88600000  *  15.11700000  *
   822       N(ATOM    822  N   GLY A 113)    4.68100000  *  44.84000000  *  12.26700000  *
   823       C(ATOM    823  CA  GLY A 113)    4.01800000  *  45.65100000  *  11.25800000  *
   824       C(ATOM    824  C   GLY A 113)    4.98300000  *  46.58100000  *  10.54300000  *
   825       O(ATOM    825  O   GLY A 113)    4.72200000  *  47.00000000  *   9.42000000  *
   826       N(ATOM    826  N   ALA A 114)    6.09600000  *  46.89800000  *  11.21000000  *
   827       C(ATOM    827  CA  ALA A 114)    7.14500000  *  47.77200000  *  10.68400000  *
   828       C(ATOM    828  C   ALA A 114)    7.92800000  *  47.01400000  *   9.60700000  *
   829       O(ATOM    829  O   ALA A 114)    8.11000000  *  47.51400000  *   8.49100000  *
   830       C(ATOM    830  CB  ALA A 114)    8.07600000  *  48.19700000  *  11.81900000  *
   831       N(ATOM    831  N   ASP A 115)    8.39200000  *  45.80900000  *   9.95200000  *
   832       C(ATOM    832  CA  ASP A 115)    9.12600000  *  44.96100000  *   9.01500000  *
   833       C(ATOM    833  C   ASP A 115)    8.20700000  *  44.47300000  *   7.89500000  *
   834       O(ATOM    834  O   ASP A 115)    8.60500000  *  44.44900000  *   6.72500000  *
   835       C(ATOM    835  CB  ASP A 115)    9.73000000  *  43.75200000  *   9.72500000  *
   836       C(ATOM    836  CG  ASP A 115)   10.53200000  *  42.87700000  *   8.78400000  *
   837       O(ATOM    837  OD1 ASP A 115)   11.45300000  *  43.40100000  *   8.11800000  *
   838       O(ATOM    838  OD2 ASP A 115)   10.22800000  *  41.67400000  *   8.69400000  *
   839       N(ATOM    839  N   GLY A 116)    6.98800000  *  44.06900000  *   8.26200000  *
   840       C(ATOM    840  CA  GLY A 116)    6.03000000  *  43.60200000  *   7.27500000  *
   841       C(ATOM    841  C   GLY A 116)    5.96000000  *  44.58100000  *   6.11500000  *
   842       O(ATOM    842  O   GLY A 116)    6.09200000  *  44.20900000  *   4.94600000  *
   843       N(ATOM    843  N   ILE A 117)    5.84100000  *  45.85800000  *   6.45500000  *
   844       C(ATOM    844  CA  ILE A 117)    5.76700000  *  46.89500000  *   5.44800000  *
   845       C(ATOM    845  C   ILE A 117)    7.13200000  *  47.10000000  *   4.79700000  *
   846       O(ATOM    846  O   ILE A 117)    7.20800000  *  47.36200000  *   3.59100000  *
   847       C(ATOM    847  CB  ILE A 117)    5.20400000  *  48.21000000  *   6.05300000  *
   848       C(ATOM    848  CG1 ILE A 117)    3.76000000  *  47.97000000  *   6.50100000  *
   849       C(ATOM    849  CG2 ILE A 117)    5.25500000  *  49.36300000  *   5.03500000  *
   850       C(ATOM    850  CD1 ILE A 117)    2.85300000  *  47.40600000  *   5.37500000  *
[...]
  C(ATOM   1528  C   GLU A 204)  24.20800000 +1  39.53600000 +1  -5.60600000 +1
  O(ATOM   1529  O   GLU A 204)  23.82200000 +1  39.61400000 +1  -4.43300000 +1
  C(ATOM   1530  CB  GLU A 204)  23.45600000 +1  41.42300000 +1  -7.05500000 +1
  C(ATOM   1531  CG  GLU A 204)  23.65000000 +1  42.88000000 +1  -7.50000000 +1
  C(ATOM   1532  CD  GLU A 204)  23.66700000 +1  43.89600000 +1  -6.35300000 +1
  O(ATOM   1533  OE1 GLU A 204)  23.71200000 +1  43.49300000 +1  -5.16400000 +1
  O(ATOM   1534  OE2 GLU A 204)  23.64600000 +1  45.11100000 +1  -6.65500000 +1
  N(ATOM   1535  N   THR A 205)  24.26200000 +1  38.39600000 +1  -6.30500000 +1
  C(ATOM   1536  CA  THR A 205)  23.86200000 +1  37.09200000 +1  -5.76900000 +1
  C(ATOM   1537  C   THR A 205)  24.81400000 +1  36.56400000 +1  -4.70800000 +1
  O(ATOM   1538  O   THR A 205)  24.39100000 +1  35.87600000 +1  -3.77700000 +1
  C(ATOM   1539  CB  THR A 205)  23.69600000 +1  36.05700000 +1  -6.89100000 +1
  O(ATOM   1540  OG1 THR A 205)  22.54900000 +1  36.40300000 +1  -7.67600000 +1
  C(ATOM   1541  CG2 THR A 205)  23.51000000 +1  34.66600000 +1  -6.31900000 +1
  N(ATOM   1542  N   LEU A 206)  26.09900000 +1  36.84500000 +1  -4.85900000 +1
  C(ATOM   1543  CA  LEU A 206)  27.03400000 +1  36.41400000 +1  -3.83200000 +1
  C(ATOM   1544  C   LEU A 206)  26.80000000 +1  37.33900000 +1  -2.64000000 +1
  O(ATOM   1545  O   LEU A 206)  26.41500000 +1  36.87900000 +1  -1.55600000 +1
  C(ATOM   1546  CB  LEU A 206)  28.49300000 +1  36.49500000 +1  -4.31600000 +1
  C(ATOM   1547  CG  LEU A 206)  29.60600000 +1  36.47700000 +1  -3.25300000 +1
  C(ATOM   1548  CD1 LEU A 206)  29.31500000 +1  35.50400000 +1  -2.11100000 +1
  C(ATOM   1549  CD2 LEU A 206)  30.92600000 +1  36.14600000 +1  -3.92200000 +1
  N(ATOM   1550  N   LEU A 207)  26.98200000 +1  38.63800000 +1  -2.89200000 +1
  C(ATOM   1551  CA  LEU A 207)  26.82000000 +1  39.71400000 +1  -1.90800000 +1
  C(ATOM   1552  C   LEU A 207)  25.64700000 +1  39.48100000 +1  -0.96300000 +1
  O(ATOM   1553  O   LEU A 207)  25.80800000 +1  39.48900000 +1   0.27300000 +1
  C(ATOM   1554  CB  LEU A 207)  26.61600000 +1  41.04300000 +1  -2.63800000 +1
  C(ATOM   1555  CG  LEU A 207)  27.82100000 +1  41.93700000 +1  -2.90900000 +1
  C(ATOM   1556  CD1 LEU A 207)  29.09700000 +1  41.12600000 +1  -3.12700000 +1
  C(ATOM   1557  CD2 LEU A 207)  27.48400000 +1  42.82800000 +1  -4.09500000 +1
  N(ATOM   1558  N   PHE A 208)  24.47300000 +1  39.28100000 +1  -1.56300000 +1
  C(ATOM   1559  CA  PHE A 208)  23.26800000 +1  39.02600000 +1  -0.81000000 +1
  C(ATOM   1560  C   PHE A 208)  23.40500000 +1  37.77200000 +1   0.05100000 +1
  O(ATOM   1561  O   PHE A 208)  23.00500000 +1  37.80400000 +1   1.21500000 +1
  C(ATOM   1562  CB  PHE A 208)  22.05600000 +1  38.93500000 +1  -1.73800000 +1
  C(ATOM   1563  CG  PHE A 208)  21.26600000 +1  40.22000000 +1  -1.83600000 +1
  C(ATOM   1564  CD1 PHE A 208)  21.31700000 +1  41.16600000 +1  -0.81500000 +1
  C(ATOM   1565  CD2 PHE A 208)  20.45300000 +1  40.47200000 +1  -2.93000000 +1
  C(ATOM   1566  CE1 PHE A 208)  20.56700000 +1  42.33800000 +1  -0.88700000 +1
  C(ATOM   1567  CE2 PHE A 208)  19.69900000 +1  41.64500000 +1  -3.00900000 +1
  C(ATOM   1568  CZ  PHE A 208)  19.76000000 +1  42.57900000 +1  -1.98200000 +1
  N(ATOM   1569  N   MET A 209)  24.02800000 +1  36.70800000 +1  -0.47500000 +1
  C(ATOM   1570  CA  MET A 209)  24.19500000 +1  35.48500000 +1   0.31900000 +1
  C(ATOM   1571  C   MET A 209)  25.17400000 +1  35.61600000 +1   1.50200000 +1
  O(ATOM   1572  O   MET A 209)  24.92500000 +1  35.03100000 +1   2.56300000 +1
  C(ATOM   1573  CB  MET A 209)  24.54900000 +1  34.27000000 +1  -0.54100000 +1
  C(ATOM   1574  CG  MET A 209)  24.34900000 +1  32.93400000 +1   0.19300000 +1
  S(ATOM   1575  SD  MET A 209)  25.82000000 +1  31.87000000 +1   0.25900000 +1
  C(ATOM   1576  CE  MET A 209)  26.59000000 +1  32.47900000 +1   1.72500000 +1
  N(ATOM   1577  N   VAL A 210)  26.26300000 +1  36.37700000 +1   1.33100000 +1
  C(ATOM   1578  CA  VAL A 210)  27.24500000 +1  36.61400000 +1   2.40900000 +1
  C(ATOM   1579  C   VAL A 210)  26.48100000 +1  37.21600000 +1   3.58200000 +1
  O(ATOM   1580  O   VAL A 210)  26.58100000 +1  36.75800000 +1   4.72000000 +1
  C(ATOM   1581  CB  VAL A 210)  28.33500000 +1  37.66000000 +1   1.99600000 +1
  C(ATOM   1582  CG1 VAL A 210)  29.35900000 +1  37.86400000 +1   3.12500000 +1
  C(ATOM   1583  CG2 VAL A 210)  29.03600000 +1  37.23000000 +1   0.73000000 +1
  N(ATOM   1584  N   LEU A 211)  25.70000000 +1  38.24700000 +1   3.28000000 +1
  C(ATOM   1585  CA  LEU A 211)  24.90100000 +1  38.90600000 +1   4.28800000 +1
  C(ATOM   1586  C   LEU A 211)  23.95600000 +1  37.90800000 +1   4.93300000 +1
  O(ATOM   1587  O   LEU A 211)  23.82800000 +1  37.89200000 +1   6.14900000 +1
  C(ATOM   1588  CB  LEU A 211)  24.10600000 +1  40.07700000 +1   3.68300000 +1
  C(ATOM   1589  CG  LEU A 211)  24.72500000 +1  41.49300000 +1   3.56400000 +1
  C(ATOM   1590  CD1 LEU A 211)  25.08300000 +1  42.03200000 +1   4.94400000 +1
  C(ATOM   1591  CD2 LEU A 211)  25.94200000 +1  41.51700000 +1   2.63200000 +1
  N(ATOM   1592  N   ASP A 212)  23.35200000 +1  37.02600000 +1   4.14000000 +1
  C(ATOM   1593  CA  ASP A 212)  22.40800000 +1  36.05200000 +1   4.69400000 +1
  C(ATOM   1594  C   ASP A 212)  22.95500000 +1  34.96300000 +1   5.62600000 +1
  O(ATOM   1595  O   ASP A 212)  22.39100000 +1  34.74600000 +1   6.70100000 +1
  C(ATOM   1596  CB  ASP A 212)  21.54800000 +1  35.43600000 +1   3.59300000 +1
  C(ATOM   1597  CG  ASP A 212)  20.44500000 +1  36.35200000 +1   3.15100000 +1
  O(ATOM   1598  OD1 ASP A 212)  20.75300000 +1  37.48900000 +1   2.74400000 +1
  O(ATOM   1599  OD2 ASP A 212)  19.26400000 +1  35.95000000 +1   3.21800000 +1
  N(ATOM   1600  N   VAL A 213)  24.02500000 +1  34.27500000 +1   5.22200000 +1
  C(ATOM   1601  CA  VAL A 213)  24.61300000 +1  33.21200000 +1   6.04200000 +1
  C(ATOM   1602  C   VAL A 213)  25.06300000 +1  33.73700000 +1   7.39900000 +1
  O(ATOM   1603  O   VAL A 213)  24.89900000 +1  33.07100000 +1   8.42700000 +1
  C(ATOM   1604  CB  VAL A 213)  25.82900000 +1  32.55500000 +1   5.34200000 +1
  C(ATOM   1605  CG1 VAL A 213)  26.86800000 +1  33.60700000 +1   4.94500000 +1
  C(ATOM   1606  CG2 VAL A 213)  26.47200000 +1  31.52800000 +1   6.25500000 +1
  N(ATOM   1607  N   SER A 214)  25.62700000 +1  34.94300000 +1   7.37500000 +1
  C(ATOM   1608  CA  SER A 214)  26.13300000 +1  35.63100000 +1   8.55500000 +1
  C(ATOM   1609  C   SER A 214)  24.96900000 +1  36.15000000 +1   9.37900000 +1
  O(ATOM   1610  O   SER A 214)  25.00600000 +1  36.09800000 +1  10.60200000 +1
  C(ATOM   1611  CB  SER A 214)  27.02100000 +1  36.79700000 +1   8.10600000 +1
  O(ATOM   1612  OG  SER A 214)  27.66200000 +1  37.44000000 +1   9.19000000 +1
  N(ATOM   1613  N   ALA A 215)  23.93100000 +1  36.62400000 +1   8.69100000 +1
  C(ATOM   1614  CA  ALA A 215)  22.71600000 +1  37.17700000 +1   9.30600000 +1
  C(ATOM   1615  C   ALA A 215)  21.83700000 +1  36.18700000 +1  10.08300000 +1
  O(ATOM   1616  O   ALA A 215)  21.13300000 +1  36.58000000 +1  11.02100000 +1
  C(ATOM   1617  CB  ALA A 215)  21.86400000 +1  37.87200000 +1   8.24300000 +1
  N(ATOM   1618  N   LYS A 216)  21.87300000 +1  34.91400000 +1   9.70000000 +1
  C(ATOM   1619  CA  LYS A 216)  21.04200000 +1  33.91400000 +1  10.36100000 +1
  C(ATOM   1620  C   LYS A 216)  21.82800000 +1  32.87700000 +1  11.16600000 +1
  O(ATOM   1621  O   LYS A 216)  21.72100000 +1  32.81700000 +1  12.39000000 +1
  C(ATOM   1622  CB  LYS A 216)  20.15400000 +1  33.22800000 +1   9.32100000 +1
  C(ATOM   1623  CG  LYS A 216)  19.41800000 +1  34.20400000 +1   8.41700000 +1
  C(ATOM   1624  CD  LYS A 216)  18.86300000 +1  33.49400000 +1   7.22500000 +1
  C(ATOM   1625  CE  LYS A 216)  18.67500000 +1  34.44400000 +1   6.06300000 +1
  N(ATOM   1626  NZ  LYS A 216)  17.51000000 +1  35.34200000 +1   6.20400000 +1
  N(ATOM   1627  N   VAL A 217)  22.58900000 +1  32.03100000 +1  10.48100000 +1
  C(ATOM   1628  CA  VAL A 217)  23.37500000 +1  31.02100000 +1  11.17600000 +1
  C(ATOM   1629  C   VAL A 217)  24.33000000 +1  31.74400000 +1  12.13700000 +1
  O(ATOM   1630  O   VAL A 217)  24.37500000 +1  31.40700000 +1  13.31300000 +1
  C(ATOM   1631  CB  VAL A 217)  24.13900000 +1  30.10100000 +1  10.17600000 +1
  C(ATOM   1632  CG1 VAL A 217)  24.94100000 +1  29.03600000 +1  10.91000000 +1
  C(ATOM   1633  CG2 VAL A 217)  23.15300000 +1  29.42900000 +1   9.23900000 +1
  N(ATOM   1634  N   GLY A 218)  25.02200000 +1  32.78100000 +1  11.64700000 +1
  C(ATOM   1635  CA  GLY A 218)  25.95000000 +1  33.55700000 +1  12.47100000 +1
  C(ATOM   1636  C   GLY A 218)  25.24700000 +1  34.21500000 +1  13.64700000 +1
  O(ATOM   1637  O   GLY A 218)  25.78400000 +1  34.29800000 +1  14.75300000 +1
  N(ATOM   1638  N   PHE A 219)  24.03300000 +1  34.69300000 +1  13.39200000 +1
  C(ATOM   1639  CA  PHE A 219)  23.19700000 +1  35.30400000 +1  14.41900000 +1
  C(ATOM   1640  C   PHE A 219)  22.85500000 +1  34.18800000 +1  15.40500000 +1
  O(ATOM   1641  O   PHE A 219)  22.98500000 +1  34.35600000 +1  16.61700000 +1
  C(ATOM   1642  CB  PHE A 219)  21.90700000 +1  35.86200000 +1  13.79100000 +1
  C(ATOM   1643  CG  PHE A 219)  20.87000000 +1  36.28600000 +1  14.79500000 +1
  C(ATOM   1644  CD1 PHE A 219)  20.91800000 +1  37.54900000 +1  15.38200000 +1
  C(ATOM   1645  CD2 PHE A 219)  19.83700000 +1  35.42800000 +1  15.14900000 +1
  C(ATOM   1646  CE1 PHE A 219)  19.94600000 +1  37.94600000 +1  16.31200000 +1
  C(ATOM   1647  CE2 PHE A 219)  18.86400000 +1  35.81900000 +1  16.07400000 +1
  C(ATOM   1648  CZ  PHE A 219)  18.91800000 +1  37.07800000 +1  16.65500000 +1
  N(ATOM   1649  N   GLY A 220)  22.42900000 +1  33.04600000 +1  14.86400000 +1
  C(ATOM   1650  CA  GLY A 220)  22.08600000 +1  31.90300000 +1  15.69100000 +1
  C(ATOM   1651  C   GLY A 220)  23.30400000 +1  31.34900000 +1  16.39600000 +1
  O(ATOM   1652  O   GLY A 220)  23.19200000 +1  30.85000000 +1  17.51500000 +1
  N(ATOM   1653  N   LEU A 221)  24.46000000 +1  31.44900000 +1  15.73100000 +1
  C(ATOM   1654  CA  LEU A 221)  25.74600000 +1  31.00400000 +1  16.26500000 +1
  C(ATOM   1655  C   LEU A 221)  26.19300000 +1  31.94300000 +1  17.41500000 +1
  O(ATOM   1656  O   LEU A 221)  27.29200000 +1  31.79900000 +1  17.95400000 +1
  C(ATOM   1657  CB  LEU A 221)  26.79500000 +1  30.93100000 +1  15.14700000 +1
  C(ATOM   1658  CG  LEU A 221)  27.76200000 +1  29.73000000 +1  15.08500000 +1
  C(ATOM   1659  CD1 LEU A 221)  27.02900000 +1  28.39600000 +1  14.92200000 +1
  C(ATOM   1660  CD2 LEU A 221)  28.72200000 +1  29.91700000 +1  13.92300000 +1
  N(ATOM   1661  N   ILE A 222)  25.34100000 +1  32.91900000 +1  17.75000000 +1
  C(ATOM   1662  CA  ILE A 222)  25.56700000 +1  33.83200000 +1  18.87200000 +1
  C(ATOM   1663  C   ILE A 222)  24.66000000 +1  33.27800000 +1  19.95500000 +1
  O(ATOM   1664  O   ILE A 222)  25.08300000 +1  32.99800000 +1  21.06300000 +1
  C(ATOM   1665  CB  ILE A 222)  25.04300000 +1  35.27700000 +1  18.63200000 +1
  C(ATOM   1666  CG1 ILE A 222)  25.64700000 +1  35.89600000 +1  17.37600000 +1
  C(ATOM   1667  CG2 ILE A 222)  25.36100000 +1  36.14600000 +1  19.84300000 +1
  C(ATOM   1668  CD1 ILE A 222)  25.21000000 +1  37.32000000 +1  17.15700000 +1
  N(ATOM   1669  N   LEU A 223)  23.38900000 +1  33.14200000 +1  19.59800000 +1
  C(ATOM   1670  CA  LEU A 223)  22.33800000 +1  32.64100000 +1  20.48200000 +1
  C(ATOM   1671  C   LEU A 223)  22.39200000 +1  31.10400000 +1  20.56900000 +1
  O(ATOM   1672  O   LEU A 223)  21.50900000 +1  30.39100000 +1  20.08200000 +1
  C(ATOM   1673  CB  LEU A 223)  20.99000000 +1  33.12600000 +1  19.93500000 +1
  C(ATOM   1674  CG  LEU A 223)  19.87300000 +1  33.63400000 +1  20.84400000 +1
  C(ATOM   1675  CD1 LEU A 223)  20.42000000 +1  34.44000000 +1  22.00600000 +1
  C(ATOM   1676  CD2 LEU A 223)  18.94800000 +1  34.47500000 +1  19.98300000 +1
  N(ATOM   1677  N   LEU A 224)  23.44000000 +1  30.61700000 +1  21.22300000 +1
  C(ATOM   1678  CA  LEU A 224)  23.70500000 +1  29.18600000 +1  21.39300000 +1
  C(ATOM   1679  C   LEU A 224)  24.77800000 +1  29.08000000 +1  22.46800000 +1
  O(ATOM   1680  O   LEU A 224)  24.82000000 +1  28.12900000 +1  23.26000000 +1
  C(ATOM   1681  CB  LEU A 224)  24.27300000 +1  28.61900000 +1  20.08500000 +1
  C(ATOM   1682  CG  LEU A 224)  25.09500000 +1  27.33000000 +1  20.14400000 +1
  C(ATOM   1683  CD1 LEU A 224)  24.20900000 +1  26.14000000 +1  20.44200000 +1
  C(ATOM   1684  CD2 LEU A 224)  25.79400000 +1  27.13600000 +1  18.80700000 +1
  N(ATOM   1685  N   ARG A 225)  25.66000000 +1  30.07600000 +1  22.42900000 +1
  C(ATOM   1686  CA  ARG A 225)  26.80000000 +1  30.25500000 +1  23.31700000 +1
  C(ATOM   1687  C   ARG A 225)  26.38700000 +1  30.33300000 +1  24.78600000 +1
  C(ATOM   1688  CB  ARG A 225)  27.49600000 +1  31.54600000 +1  22.89400000 +1
  C(ATOM   1689  CG  ARG A 225)  28.74400000 +1  31.91900000 +1  23.62700000 +1
  C(ATOM   1690  CD  ARG A 225)  29.28700000 +1  33.17800000 +1  22.97600000 +1
  N(ATOM   1691  NE  ARG A 225)  30.58000000 +1  33.57700000 +1  23.52300000 +1
  C(ATOM   1692  CZ  ARG A 225)  31.01000000 +1  34.83200000 +1  23.56600000 +1
  N(ATOM   1693  NH1 ARG A 225)  30.24500000 +1  35.81300000 +1  23.09200000 +1
  N(ATOM   1694  NH2 ARG A 225)  32.19700000 +1  35.10200000 +1  24.09000000 +1
  C(HETATM 1696  C1  RET B 300)  15.39500000 +1  45.53500000 +1   1.17800000 +1
  C(HETATM 1697  C2  RET B 300)  14.61500000 +1  46.31100000 +1   0.12200000 +1
  C(HETATM 1698  C3  RET B 300)  15.20700000 +1  47.67700000 +1  -0.06300000 +1
  C(HETATM 1699  C4  RET B 300)  15.20600000 +1  48.50100000 +1   1.21500000 +1
  C(HETATM 1700  C5  RET B 300)  15.62300000 +1  47.71000000 +1   2.42100000 +1
  C(HETATM 1701  C6  RET B 300)  15.72300000 +1  46.34400000 +1   2.46100000 +1
  C(HETATM 1702  C7  RET B 300)  16.12400000 +1  45.61200000 +1   3.67200000 +1
  C(HETATM 1703  C8  RET B 300)  16.23600000 +1  44.31500000 +1   4.00700000 +1
  C(HETATM 1704  C9  RET B 300)  16.64200000 +1  43.58200000 +1   5.19000000 +1
  C(HETATM 1705  C10 RET B 300)  16.57800000 +1  42.20500000 +1   5.11600000 +1
  C(HETATM 1706  C11 RET B 300)  16.85400000 +1  41.17400000 +1   6.08200000 +1
  C(HETATM 1707  C12 RET B 300)  16.96000000 +1  39.88500000 +1   5.72200000 +1
  C(HETATM 1708  C13 RET B 300)  17.25400000 +1  38.79900000 +1   6.58100000 +1
  C(HETATM 1709  C14 RET B 300)  17.45100000 +1  37.67200000 +1   5.89300000 +1
  C(HETATM 1710  C15 RET B 300)  17.86200000 +1  36.51700000 +1   6.51000000 +1
  C(HETATM 1711  C16 RET B 300)  14.51200000 +1  44.34100000 +1   1.31700000 +1
  C(HETATM 1712  C17 RET B 300)  16.75100000 +1  45.11300000 +1   0.55900000 +1
  C(HETATM 1713  C18 RET B 300)  15.86900000 +1  48.74600000 +1   3.48000000 +1
  C(HETATM 1714  C19 RET B 300)  17.15200000 +1  44.35400000 +1   6.37700000 +1
  C(HETATM 1715  C20 RET B 300)  17.40900000 +1  38.99100000 +1   8.07200000 +1
  O(HETATM 1716  O   HOH B 400)  18.90900000 +1  36.77300000 +1  -0.20500000 +1
  O(HETATM 1717  O   HOH B 401)  21.49300000 +1  32.10900000 +1  -1.20200000 +1
  O(HETATM 1718  O   HOH B 402)  20.12600000 +1  34.24800000 +1  -2.87400000 +1
  O(HETATM 1719  O   HOH B 403)  19.21400000 +1  39.68500000 +1  11.72100000 +1
  O(HETATM 1720  O   HOH B 404)  15.19900000 +1  42.01400000 +1  35.43300000 +1
  O(HETATM 1721  O   HOH B 405)  21.96800000 +1  36.81500000 +1  23.42600000 +1
  O(HETATM 1722  O   HOH B 406)  21.21500000 +1  45.81700000 +1 -12.93100000 +1
  O(HETATM 1723  O   HOH B 407)  23.84000000 +1  48.82600000 +1 -16.39400000 +1
  O(HETATM 1724  O   HOH B 408)  18.42900000 +1  29.04100000 +1 -11.17200000 +1
  O(HETATM 1725  O   HOH B 409)  15.08900000 +1  36.48400000 +1  28.80800000 +1
  O(HETATM 1726  O   HOH B 410)  31.09400000 +1  49.26600000 +1  22.77100000 +1
  O(HETATM 1727  O   HOH B 411)  11.29900000 +1  46.16900000 +1  10.68200000 +1
  O(HETATM 1728  O   HOH B 412)   9.07200000 +1  19.00300000 +1  22.28100000 +1
  O(HETATM 1729  O   HOH B 413)  29.57600000 +1  46.83600000 +1  -3.67000000 +1
  O(HETATM 1730  O   HOH B 414)  27.36200000 +1  28.04300000 +1   9.58400000 +1
  O(HETATM 1731  O   HOH B 415)   9.05700000 +1  60.48900000 +1   7.91700000 +1
  O(HETATM 1732  O   HOH B 416)  27.33700000 +1  21.09200000 +1  20.07500000 +1
  O(HETATM 1733  O   HOH B 417)  19.45600000 +1  52.82700000 +1 -15.33100000 +1
  O(HETATM 1734  O   HOH B 418)  18.55000000 +1  56.58500000 +1  -9.96100000 +1
  O(HETATM 1735  O   HOH B 419)   2.58100000 +1  36.64800000 +1   1.58400000 +1
  O(HETATM 1736  O   HOH B 420)  12.99400000 +1  20.78800000 +1   6.75400000 +1
  O(HETATM 1737  O   HOH B 421)  20.54800000 +1  24.75500000 +1 -12.59200000 +1
  O(HETATM 1738  O   HOH B 422)  21.77400000 +1  20.63700000 +1  -0.21100000 +1
  O(HETATM 1739  O   HOH B 423)  25.30200000 +1  17.48100000 +1   9.46100000 +1
  O(HETATM 1740  O   HOH B 424)  28.06100000 +1  21.80900000 +1  -6.60800000 +1
  O(HETATM 1741  O   HOH B 425)  11.49400000 +1  22.97900000 +1  10.69000000 +1


                RESIDUE SEQUENCE IN PROTEIN Chain: A

             1     2     3     4     5     6     7     8     9    10
        0                                       ARG   PRO   GLU   TRP   
       10   ILE   TRP   LEU   ALA   LEU   GLY   THR   ALA   LEU   MET   
       20   GLY   LEU   GLY   THR   LEU   TYR   PHE   LEU   VAL   LYS   
       30   GLY   MET   GLY   VAL   SER   ASP   PRO   ASP   ALA   LYS   
       40   LYS   PHE   TYR   ALA   ILE   THR   THR   LEU   VAL   PRO   
       50   ALA   ILE   ALA   PHE   THR   MET   TYR   LEU   SER   MET   
       60   LEU   LEU   GLY   TYR   GLY   LEU   THR   MET   VAL   PRO   
       70   PHE   GLY   GLY   GLU   GLN   ASN   PRO   ILE   TYR   TRP   
       80   ALA   ARG   TYR   ALA   ASP   TRP   LEU   PHE   THR   THR   
       90   PRO   LEU   LEU   LEU   LEU   ASP   LEU   ALA   LEU   LEU   
      100   VAL   ASP   ALA   ASP   GLN   GLY   THR   ILE   LEU   ALA   
      110   LEU   VAL   GLY   ALA   ASP   GLY   ILE   MET   ILE   GLY   
      120   THR   GLY   LEU   VAL   GLY   ALA   LEU   THR   LYS   VAL   
      130   TYR   SER   TYR   ARG   PHE   VAL   TRP   TRP   ALA   ILE   
      140   SER   THR   ALA   ALA   MET   LEU   TYR   ILE   LEU   TYR   
      150   VAL   LEU   PHE   PHE   GLY   PHE   THR   SER   LYS   ALA   
      160   GLU   SER   MET   ARG   PRO   GLU   VAL   ALA   SER   THR   
      170   PHE   LYS   VAL   LEU   ARG   ASN   VAL   THR   VAL   VAL   
      180   LEU   TRP   SER   ALA   TYR   PRO   VAL   VAL   TRP   LEU   
      190   ILE   GLY   SER   GLU   GLY   ALA   GLY   ILE   VAL   PRO   
      200   LEU   ASN   ILE   GLU   THR   LEU   LEU   PHE   MET   VAL   
      210   LEU   ASP   VAL   SER   ALA   LYS   VAL   GLY   PHE   GLY   
      220   LEU   ILE   LEU   LEU   ARG   

                RESIDUE SEQUENCE IN PROTEIN Chain: A

        0        RPEW IWLALGTALM GLGTLYFLVK GMGVSDPDAK KFYAITTLVP
       50  AIAFTMYLSM LLGYGLTMVP FGGEQNPIYW ARYADWLFTT PLLLLDLALL
      100  VDADQGTILA LVGADGIMIG TGLVGALTKV YSYRFVWWAI STAAMLYILY
      150  VLFFGFTSKA ESMRPEVAST FKVLRNVTVV LWSAYPVVWL IGSEGAGIVP
      200  LNIETLLFMV LDVSAKVGFG LILLR

          ADD-H: SYSTEM HAS BEEN HYDROGENATED

 ******************************************************************************
 *                                                                            *
 *     Error and normal termination messages reported in this calculation     *
 *                                                                            *
 * ADD-H: SYSTEM HAS BEEN HYDROGENATED                                        *
 * JOB ENDED NORMALLY                                                         *
 *                                                                            *
 ******************************************************************************



 TOTAL JOB TIME:             0.40 SECONDS

 == MOPAC DONE ==
