 *******************************************************************************
 ** Site#:    0         For non-commercial use only    Version 20.173L 64BITS **
 *******************************************************************************
 ** Cite this program as: MOPAC2016, Version: 20.173L, James J. P. Stewart,   **
 ** Stewart Computational Chemistry, web-site: HTTP://OpenMOPAC.net.          **
 *******************************************************************************
 **                                                                           **
 **                                MOPAC2016                                  **
 **                                                                           **
 *******************************************************************************

                              INDO CALCULATION RESULTS

 *******************************************************************************
 *  CALCULATION DONE:                                Tue Jul  7 10:01:36 2020  *
 *  INDO       - The INDO Hamiltonian to be used
 *  CIS        - C.I. USES 1 ELECTRON EXCITATIONS ONLY
 *  T=         - A TIME OF 172800.0 SECONDS REQUESTED
 *  DUMP=N     - RESTART FILE WRITTEN EVERY 7200.0 SECONDS REQUESTED
 *******************************************************************************
INDO CIS
 benzene

   ATOM   CHEMICAL          X               Y               Z
  NUMBER   SYMBOL      (ANGSTROMS)     (ANGSTROMS)     (ANGSTROMS)
 
     1       H          0.00000000      2.48421200      0.00000000   
     2       H          0.00000000     -2.48421200      0.00000000   
     3       H          2.15139000      1.24210600      0.00000000   
     4       H         -2.15139000     -1.24210600      0.00000000   
     5       H         -2.15139000      1.24210600      0.00000000   
     6       H          2.15139000     -1.24210600      0.00000000   
     7       C          0.00000000      1.39679200      0.00000000   
     8       C          0.00000000     -1.39679200      0.00000000   
     9       C          1.20965700      0.69839600      0.00000000   
    10       C         -1.20965700     -0.69839600      0.00000000   
    11       C         -1.20965700      0.69839600      0.00000000   
    12       C          1.20965700     -0.69839600      0.00000000   
 


          CARTESIAN COORDINATES 

    NO.       ATOM           X           Y           Z

     1         H          0.0000      2.4842      0.0000
     2         H          0.0000     -2.4842      0.0000
     3         H          2.1514      1.2421      0.0000
     4         H         -2.1514     -1.2421      0.0000
     5         H         -2.1514      1.2421      0.0000
     6         H          2.1514     -1.2421      0.0000
     7         C          0.0000      1.3968      0.0000
     8         C          0.0000     -1.3968      0.0000
     9         C          1.2097      0.6984      0.0000
    10         C         -1.2097     -0.6984      0.0000
    11         C         -1.2097      0.6984      0.0000
    12         C          1.2097     -0.6984      0.0000

           Empirical Formula: C6 H6  =    12 atoms



      MOLECULAR POINT GROUP   :   D6h 


      RHF CALCULATION, NO. OF DOUBLY OCCUPIED LEVELS = 15

 WARNING: INDO only performs single-point calculations

 Summary of symmetry occupancy in each shell:

 SHELL     
    1   15
    v   15
 TOTAL  30




    ROOT NO.    1           2           3           4           5           6

           -43.49882   -32.89454   -32.89454   -25.17473   -25.17472   -23.50145
  
  
  S  H   1   0.09899     0.23687     0.00000    -0.00000     0.26514     0.24378
  
  S  H   2   0.09899    -0.23687    -0.00000    -0.00000     0.26514     0.24378
  
  S  H   3   0.09899     0.11844    -0.20513     0.22962    -0.13257     0.24378
  
  S  H   4   0.09899    -0.11844     0.20513     0.22962    -0.13257     0.24378
  
  S  H   5   0.09899     0.11843     0.20514    -0.22962    -0.13257     0.24378
  
  S  H   6   0.09899    -0.11843    -0.20514    -0.22962    -0.13257     0.24378
  
  S  C   7   0.36472     0.47753     0.00000    -0.00000     0.35183     0.06934
 PX  C   7   0.00000     0.00000    -0.22170     0.34817     0.00000    -0.00000
 PY  C   7  -0.15442     0.00605     0.00000    -0.00000     0.13426     0.32005
 PZ  C   7   0.00000     0.00000    -0.00000    -0.00000    -0.00000     0.00000
  
  S  C   8   0.36472    -0.47753    -0.00000    -0.00000     0.35183     0.06934
 PX  C   8  -0.00000     0.00000    -0.22170    -0.34817    -0.00000     0.00000
 PY  C   8   0.15442     0.00605     0.00000     0.00000    -0.13426    -0.32005
 PZ  C   8  -0.00000     0.00000     0.00000    -0.00000    -0.00000     0.00000
  
  S  C   9   0.36472     0.23877    -0.41355     0.30470    -0.17592     0.06934
 PX  C   9  -0.13373    -0.09338    -0.05997     0.01365    -0.20890     0.27717
 PY  C   9  -0.07721     0.16779     0.09338     0.20890     0.22756     0.16002
 PZ  C   9   0.00000    -0.00000    -0.00000    -0.00000    -0.00000     0.00000
  
  S  C  10   0.36472    -0.23877     0.41355     0.30470    -0.17592     0.06934
 PX  C  10   0.13373    -0.09338    -0.05997    -0.01365     0.20890    -0.27717
 PY  C  10   0.07721     0.16779     0.09338    -0.20890    -0.22756    -0.16002
 PZ  C  10  -0.00000     0.00000     0.00000     0.00000    -0.00000     0.00000
  
  S  C  11   0.36472     0.23876     0.41356    -0.30469    -0.17592     0.06934
 PX  C  11   0.13373     0.09338    -0.05996     0.01365     0.20890    -0.27717
 PY  C  11  -0.07721     0.16779    -0.09338    -0.20890     0.22756     0.16002
 PZ  C  11  -0.00000     0.00000    -0.00000     0.00000    -0.00000     0.00000
  
  S  C  12   0.36472    -0.23876    -0.41356    -0.30469    -0.17592     0.06934
 PX  C  12  -0.13373     0.09338    -0.05996    -0.01365    -0.20890     0.27717
 PY  C  12   0.07721     0.16779    -0.09338     0.20890    -0.22756    -0.16002
 PZ  C  12  -0.00000     0.00000    -0.00000    -0.00000    -0.00000     0.00000




    ROOT NO.    7           8           9          10          11          12

           -17.37566   -17.36218   -15.23975   -15.23974   -13.36409   -12.44223
  
  
  S  H   1  -0.28033     0.00000     0.33661     0.00000    -0.00000    -0.31885
  
  S  H   2   0.28033    -0.00000    -0.33661    -0.00000     0.00000    -0.31885
  
  S  H   3   0.28033    -0.00000     0.16831    -0.29151    -0.00000     0.15943
  
  S  H   4  -0.28033     0.00000    -0.16831     0.29151    -0.00000     0.15943
  
  S  H   5   0.28033    -0.00000     0.16830     0.29151    -0.00000     0.15943
  
  S  H   6  -0.28033     0.00000    -0.16830    -0.29151     0.00000     0.15943
  
  S  C   7  -0.20476     0.00000    -0.09240    -0.00000     0.00000     0.00164
 PX  C   7   0.00000     0.40825    -0.00000     0.17226    -0.00000     0.00000
 PY  C   7  -0.21484     0.00000     0.42640     0.00000    -0.00000    -0.31603
 PZ  C   7  -0.00000    -0.00000     0.00000     0.00000     0.40825     0.00000
  
  S  C   8   0.20476    -0.00000     0.09240     0.00000    -0.00000     0.00164
 PX  C   8   0.00000     0.40825    -0.00000     0.17226     0.00000    -0.00000
 PY  C   8  -0.21484     0.00000     0.42640     0.00000    -0.00000     0.31603
 PZ  C   8  -0.00000    -0.00000     0.00000     0.00000     0.40825     0.00000
  
  S  C   9   0.20476    -0.00000    -0.04620     0.08002     0.00000    -0.00082
 PX  C   9   0.18606    -0.20412     0.25923    -0.27673     0.00000    -0.02035
 PY  C   9   0.10742     0.35355    -0.02259    -0.25923     0.00000     0.35128
 PZ  C   9  -0.00000    -0.00000     0.00000     0.00000     0.40825    -0.00000
  
  S  C  10  -0.20476     0.00000     0.04620    -0.08002    -0.00000    -0.00082
 PX  C  10   0.18606    -0.20412     0.25923    -0.27673    -0.00000     0.02035
 PY  C  10   0.10742     0.35355    -0.02259    -0.25923     0.00000    -0.35128
 PZ  C  10  -0.00000    -0.00000     0.00000     0.00000     0.40825     0.00000
  
  S  C  11   0.20476    -0.00000    -0.04620    -0.08002     0.00000    -0.00082
 PX  C  11  -0.18606    -0.20412    -0.25922    -0.27674     0.00000     0.02035
 PY  C  11   0.10742    -0.35355    -0.02259     0.25923    -0.00000     0.35128
 PZ  C  11  -0.00000    -0.00000     0.00000     0.00000     0.40825    -0.00000
  
  S  C  12  -0.20476     0.00000     0.04620     0.08002    -0.00000    -0.00082
 PX  C  12  -0.18606    -0.20412    -0.25922    -0.27674     0.00000    -0.02035
 PY  C  12   0.10742    -0.35355    -0.02259     0.25923    -0.00000    -0.35128
 PZ  C  12  -0.00000    -0.00000     0.00000     0.00000     0.40825     0.00000




    ROOT NO.   13          14          15          16          17          18

           -12.44223    -8.96681    -8.96681     0.84186     0.84186     3.18151
  
  
  S  H   1  -0.00000     0.00000     0.00000    -0.00000    -0.00000    -0.21104
  
  S  H   2  -0.00000     0.00000    -0.00000    -0.00000     0.00000     0.21104
  
  S  H   3   0.27613    -0.00000    -0.00000    -0.00000     0.00000     0.21104
  
  S  H   4   0.27613     0.00000     0.00000    -0.00000     0.00000    -0.21104
  
  S  H   5  -0.27613    -0.00000     0.00000    -0.00000    -0.00000     0.21104
  
  S  H   6  -0.27613     0.00000     0.00000     0.00000    -0.00000    -0.21104
  
  S  C   7  -0.00000    -0.00000    -0.00000     0.00000     0.00000     0.34531
 PX  C   7  -0.36303    -0.00000    -0.00000    -0.00000     0.00000    -0.00000
 PY  C   7  -0.00000     0.00000     0.00000    -0.00000    -0.00000    -0.05373
 PZ  C   7   0.00000    -0.57735     0.00002    -0.00004     0.57735    -0.00000
  
  S  C   8  -0.00000     0.00000     0.00000    -0.00000     0.00000    -0.34531
 PX  C   8   0.36303     0.00000     0.00000     0.00000    -0.00000    -0.00000
 PY  C   8   0.00000     0.00000     0.00000    -0.00000    -0.00000    -0.05373
 PZ  C   8  -0.00000     0.57735    -0.00002    -0.00004     0.57735     0.00000
  
  S  C   9  -0.00142     0.00000     0.00000     0.00000    -0.00000    -0.34531
 PX  C   9   0.32778     0.00000     0.00000     0.00000    -0.00000     0.04653
 PY  C   9  -0.02035    -0.00000    -0.00000    -0.00000     0.00000     0.02687
 PZ  C   9   0.00000    -0.28869    -0.49999     0.50002    -0.28864    -0.00000
  
  S  C  10  -0.00142    -0.00000     0.00000     0.00000    -0.00000     0.34531
 PX  C  10  -0.32778    -0.00000     0.00000    -0.00000     0.00000     0.04653
 PY  C  10   0.02035     0.00000    -0.00000    -0.00000     0.00000     0.02687
 PZ  C  10  -0.00000     0.28869     0.49999     0.50002    -0.28864     0.00000
  
  S  C  11   0.00142    -0.00000    -0.00000    -0.00000     0.00000    -0.34531
 PX  C  11   0.32778    -0.00000    -0.00000    -0.00000     0.00000    -0.04653
 PY  C  11   0.02035    -0.00000     0.00000     0.00000    -0.00000     0.02687
 PZ  C  11  -0.00000    -0.28866     0.50001    -0.49998    -0.28871     0.00000
  
  S  C  12   0.00142    -0.00000    -0.00000    -0.00000     0.00000     0.34531
 PX  C  12  -0.32778    -0.00000     0.00000    -0.00000     0.00000    -0.04653
 PY  C  12  -0.02035     0.00000    -0.00000    -0.00000     0.00000     0.02687
 PZ  C  12  -0.00000     0.28866    -0.50001    -0.49998    -0.28871     0.00000




    ROOT NO.   19          20          21          22          23          24

             3.19021     4.06383     4.06383     5.24521     5.89019     5.89020
  
  
  S  H   1   0.00000     0.00001    -0.28568     0.31215    -0.36832    -0.00000
  
  S  H   2   0.00000     0.00001    -0.28568     0.31215     0.36832     0.00000
  
  S  H   3   0.00000    -0.24741     0.14283     0.31215    -0.18416     0.31897
  
  S  H   4   0.00000    -0.24741     0.14283     0.31215     0.18416    -0.31897
  
  S  H   5   0.00000     0.24740     0.14285     0.31215    -0.18416    -0.31897
  
  S  H   6  -0.00000     0.24740     0.14285     0.31215     0.18416     0.31897
  
  S  C   7  -0.00000    -0.00002     0.44209    -0.16981     0.28229     0.00000
 PX  C   7   0.00000    -0.23647    -0.00001     0.00000    -0.00000     0.22169
 PY  C   7  -0.00000    -0.00000     0.01889    -0.20097     0.26237     0.00000
 PZ  C   7  -0.40825     0.00000     0.00000     0.00000    -0.00000     0.00000
  
  S  C   8  -0.00000    -0.00002     0.44209    -0.16981    -0.28229    -0.00000
 PX  C   8  -0.00000     0.23647     0.00001    -0.00000    -0.00000     0.22169
 PY  C   8  -0.00000     0.00000    -0.01889     0.20097     0.26237     0.00000
 PZ  C   8   0.40825     0.00000    -0.00000    -0.00000    -0.00000     0.00000
  
  S  C   9  -0.00000     0.38287    -0.22103    -0.16981     0.14115    -0.24447
 PX  C   9  -0.00000     0.07328     0.09422    -0.17405     0.20961    -0.14136
 PY  C   9  -0.00000    -0.09421    -0.18208    -0.10049    -0.10067    -0.20961
 PZ  C   9   0.40825    -0.00000     0.00000     0.00000    -0.00000     0.00000
  
  S  C  10  -0.00000     0.38287    -0.22103    -0.16981    -0.14115     0.24447
 PX  C  10   0.00000    -0.07328    -0.09422     0.17405     0.20961    -0.14136
 PY  C  10   0.00000     0.09421     0.18208     0.10049    -0.10067    -0.20961
 PZ  C  10  -0.40825    -0.00000     0.00000     0.00000    -0.00000    -0.00000
  
  S  C  11  -0.00000    -0.38285    -0.22106    -0.16981     0.14114     0.24447
 PX  C  11   0.00000     0.07329    -0.09421     0.17405    -0.20960    -0.14136
 PY  C  11   0.00000     0.09422    -0.18207    -0.10049    -0.10067     0.20960
 PZ  C  11   0.40825     0.00000     0.00000     0.00000    -0.00000     0.00000
  
  S  C  12   0.00000    -0.38285    -0.22106    -0.16981    -0.14114    -0.24447
 PX  C  12  -0.00000    -0.07329     0.09421    -0.17405    -0.20960    -0.14136
 PY  C  12   0.00000    -0.09422     0.18207     0.10049    -0.10067     0.20960
 PZ  C  12  -0.40825    -0.00000     0.00000     0.00000    -0.00000     0.00000




    ROOT NO.   25          26          27          28          29          30

             8.46956     9.14849     9.14849    11.76971    11.76971    12.63967
  
  
  S  H   1  -0.20867     0.28241    -0.00002     0.00002    -0.16811     0.00000
  
  S  H   2   0.20867     0.28241    -0.00002    -0.00002     0.16811     0.00000
  
  S  H   3   0.20867    -0.14122    -0.24456    -0.14558    -0.08407     0.00000
  
  S  H   4  -0.20867    -0.14122    -0.24456     0.14558     0.08407     0.00000
  
  S  H   5   0.20867    -0.14119     0.24458     0.14560    -0.08404    -0.00000
  
  S  H   6  -0.20867    -0.14119     0.24458    -0.14560     0.08404    -0.00000
  
  S  C   7  -0.07417     0.11875    -0.00001     0.00002    -0.13065    -0.00000
 PX  C   7   0.00000     0.00001     0.15622     0.45317     0.00005    -0.40825
 PY  C   7   0.34296    -0.46376     0.00003    -0.00003     0.28747    -0.00000
 PZ  C   7  -0.00000    -0.00000    -0.00000    -0.00000     0.00000    -0.00000
  
  S  C   8   0.07417     0.11875    -0.00001    -0.00002     0.13065    -0.00000
 PX  C   8   0.00000    -0.00001    -0.15622     0.45317     0.00005     0.40825
 PY  C   8   0.34296     0.46376    -0.00003    -0.00003     0.28747     0.00000
 PZ  C   8  -0.00000    -0.00000    -0.00000     0.00000     0.00000    -0.00000
  
  S  C   9   0.07417    -0.05938    -0.10283    -0.11314    -0.06534     0.00000
 PX  C   9  -0.29701     0.26848     0.30875     0.32891    -0.07171    -0.20412
 PY  C   9  -0.17148    -0.00121     0.26846    -0.07180     0.41174     0.35355
 PZ  C   9   0.00000     0.00000    -0.00000    -0.00000    -0.00000    -0.00000
  
  S  C  10  -0.07417    -0.05938    -0.10283     0.11314     0.06534     0.00000
 PX  C  10  -0.29701    -0.26848    -0.30875     0.32891    -0.07171     0.20412
 PY  C  10  -0.17148     0.00121    -0.26846    -0.07180     0.41174    -0.35355
 PZ  C  10  -0.00000     0.00000    -0.00000     0.00000     0.00000     0.00000
  
  S  C  11   0.07417    -0.05937     0.10284     0.11315    -0.06531    -0.00000
 PX  C  11   0.29701    -0.26844     0.30878     0.32889     0.07179    -0.20412
 PY  C  11  -0.17148    -0.00124    -0.26846     0.07170     0.41175    -0.35355
 PZ  C  11  -0.00000     0.00000    -0.00000    -0.00000    -0.00000    -0.00000
  
  S  C  12  -0.07417    -0.05937     0.10284    -0.11315     0.06531    -0.00000
 PX  C  12   0.29701     0.26844    -0.30878     0.32889     0.07179     0.20412
 PY  C  12  -0.17148     0.00124     0.26846     0.07170     0.41175     0.35355
 PZ  C  12  -0.00000     0.00000    -0.00000     0.00000     0.00000    -0.00000


 Reference determinate nber   1 is ALPHA 1 -  15
 SINGLE excitations FROM orbs   1 to  15 INTO orbs  16 to  30
 

 CI excitations=  226:        =226
 The lowest  226 spin-adapted configurations of multiplicity=  1
     sym   eV   cm**-1 -dets- dipole oscilator X FRAG ....Excitations named from first reference determinate
                       tot  #  Debye  strength
 
   1      0.000      0.  1  1  0.0000 0.000000 0  0 (    )->(       )
   2      5.802  46796.  1  1  0.0000 0.495181 1  1 (  15)->(  17   )
   3      5.802  46796.  1  1  0.0000 0.495181 1  1 (  14)->(  16   )
   4      6.483  52293.  1  1  0.0000 0.553346 1  1 (  15)->(  16   )
   5      6.483  52293.  1  1  0.0000 0.553346 1  1 (  14)->(  17   )
   6      7.173  57855.  1  1  0.0000 0.000000 1  1 (  15)->(  18   )
   7      7.173  57855.  1  1  0.0000 0.000000 1  1 (  14)->(  18   )
   8      7.960  64198.  1  1  0.0000 0.000000 1  1 (  15)->(  20   )
   9      7.960  64198.  1  1  0.0000 0.000000 1  1 (  14)->(  21   )
  10      7.962  64215.  1  1  0.0000 0.000000 1  1 (  15)->(  21   )
  11      7.962  64215.  1  1  0.0000 0.000000 1  1 (  14)->(  20   )
  12      7.962  64219.  1  1  0.0000 0.000002 1  1 (  13)->(  16   )
  13      7.962  64219.  1  1  0.0000 0.000002 1  1 (  12)->(  17   )
  14      7.991  64449.  1  1  0.0000 0.000000 1  1 (  15)->(  19   )
  15      7.991  64449.  1  1  0.0000 0.000000 1  1 (  14)->(  19   )
  16      7.994  64478.  1  1  0.0000 0.000000 1  1 (  13)->(  17   )
  17      7.994  64478.  1  1  0.0000 0.000000 1  1 (  12)->(  16   )
  18      9.334  75286.  1  1  0.0000 0.000000 1  1 (  15)->(  22   )
  19      9.334  75286.  1  1  0.0000 0.000000 1  1 (  14)->(  22   )
  20      9.719  78391.  1  1  0.0000 0.089824 1  1 (  15)->(  24   )
  21      9.719  78391.  1  1  0.0000 0.089824 1  1 (  14)->(  23   )
  22      9.880  79691.  1  1  0.0000 0.000000 1  1 (  15)->(  23   )
  23      9.880  79691.  1  1  0.0000 0.000000 1  1 (  14)->(  24   )
  24     10.040  80975.  1  1  0.0000 0.000000 1  1 (  11)->(  16   )
  25     10.040  80975.  1  1  0.0000 0.000000 1  1 (  11)->(  17   )
  26     10.327  83289.  1  1  0.0000 0.000000 1  1 (  13)->(  19   )
  27     10.327  83289.  1  1  0.0000 0.000000 1  1 (  12)->(  19   )
  28     10.651  85909.  1  1  0.0000 0.000000 1  1 (  10)->(  16   )
  29     10.651  85910.  1  1  0.0000 0.000000 1  1 (   9)->(  17   )
  30     11.011  88811.  1  1  0.0000 0.000000 1  1 (  10)->(  17   )
  31     11.011  88811.  1  1  0.0000 0.000000 1  1 (   9)->(  16   )
  32     11.148  89913.  1  1  0.0000 0.116372 1  1 (  13)->(  18   )
  33     11.148  89913.  1  1  0.0000 0.116372 1  1 (  12)->(  18   )
  34     11.570  93322.  1  1  0.0000 0.000000 1  1 (  11)->(  18   )
  35     11.820  95338.  1  1  0.0000 0.000000 1  1 (  13)->(  21   )
  36     11.820  95338.  1  1  0.0000 0.000000 1  1 (  12)->(  20   )
  37     11.989  96697.  1  1  0.0000 0.000000 1  1 (  13)->(  20   )
  38     11.989  96697.  1  1  0.0000 0.000000 1  1 (  12)->(  21   )
  39     12.095  97554.  1  1  0.0000 0.000000 1  1 (  15)->(  25   )
  40     12.095  97554.  1  1  0.0000 0.000000 1  1 (  14)->(  25   )
  41     12.135  97879.  1  1  0.0000 0.000000 1  1 (  11)->(  19   )
  42     12.358  99673.  1  1  0.0000 0.000000 1  1 (  11)->(  20   )
  43     12.358  99673.  1  1  0.0000 0.000000 1  1 (  11)->(  21   )
  44     12.530 101065.  1  1  0.0000 0.000000 1  1 (   8)->(  16   )
  45     12.530 101065.  1  1  0.0000 0.000000 1  1 (   8)->(  17   )
  46     12.553 101250.  1  1  0.0000 0.000000 1  1 (  15)->(  27   )
  47     12.553 101250.  1  1  0.0000 0.000000 1  1 (  14)->(  26   )
  48     12.951 104461.  1  1  0.0000 0.000000 1  1 (  15)->(  26   )
  49     12.951 104461.  1  1  0.0000 0.000000 1  1 (  14)->(  27   )
  50     13.180 106301.  1  1  0.0000 0.000000 1  1 (  10)->(  19   )
  51     13.180 106301.  1  1  0.0000 0.000000 1  1 (   9)->(  19   )
  52     13.245 106826.  1  1  0.0000 0.000000 1  1 (   7)->(  16   )
  53     13.245 106826.  1  1  0.0000 0.000000 1  1 (   7)->(  17   )
  54     13.274 107059.  1  1  0.0000 0.000000 1  1 (  13)->(  22   )
  55     13.274 107059.  1  1  0.0000 0.000000 1  1 (  12)->(  22   )
  56     13.732 110753.  1  1  0.0000 0.091846 1  1 (  11)->(  22   )
  57     13.754 110935.  1  1  0.0000 0.027118 1  1 (  13)->(  23   )
  58     13.754 110935.  1  1  0.0000 0.027117 1  1 (  12)->(  24   )
  59     13.875 111906.  1  1  0.0000 0.027355 1  1 (  13)->(  24   )
  60     13.875 111906.  1  1  0.0000 0.027355 1  1 (  12)->(  23   )
  61     13.955 112553.  1  1  0.0000 0.000000 1  1 (  10)->(  18   )
  62     13.955 112553.  1  1  0.0000 0.000000 1  1 (   9)->(  18   )
  63     14.197 114507.  1  1  0.0000 0.000000 1  1 (  11)->(  23   )
  64     14.197 114507.  1  1  0.0000 0.000000 1  1 (  11)->(  24   )
  65     14.607 117811.  1  1  0.0000 0.050763 1  1 (  10)->(  21   )
  66     14.607 117811.  1  1  0.0000 0.050763 1  1 (   9)->(  20   )
  67     14.753 118991.  1  1  0.0000 0.051271 1  1 (  10)->(  20   )
  68     14.753 118991.  1  1  0.0000 0.051272 1  1 (   9)->(  21   )
  69     14.879 120006.  1  1  0.0000 0.000000 1  1 (   8)->(  19   )
  70     15.100 121789.  1  1  0.0000 0.000000 1  1 (  15)->(  29   )
  71     15.100 121789.  1  1  0.0000 0.000000 1  1 (  14)->(  28   )
  72     15.284 123276.  1  1  0.0000 0.030255 1  1 (  15)->(  28   )
  73     15.284 123276.  1  1  0.0000 0.030255 1  1 (  14)->(  29   )
  74     15.569 125569.  1  1  0.0000 0.000000 1  1 (   8)->(  18   )
  75     15.593 125766.  1  1  0.0000 0.151634 1  1 (   7)->(  19   )
  76     15.933 128508.  1  1  0.0000 0.000000 1  1 (  15)->(  30   )
  77     15.933 128508.  1  1  0.0000 0.000000 1  1 (  14)->(  30   )
  78     16.132 130112.  1  1  0.0000 0.000000 1  1 (   7)->(  18   )
  79     16.195 130624.  1  1  0.0000 0.586844 1  1 (  10)->(  22   )
  80     16.195 130624.  1  1  0.0000 0.586843 1  1 (   9)->(  22   )
  81     16.259 131142.  1  1  0.0000 0.036318 1  1 (  13)->(  25   )
  82     16.259 131142.  1  1  0.0000 0.036318 1  1 (  12)->(  25   )
  83     16.492 133020.  1  1  0.0000 0.000000 1  1 (  11)->(  25   )
  84     16.498 133069.  1  1  0.0000 0.000000 1  1 (  10)->(  23   )
  85     16.498 133069.  1  1  0.0000 0.000000 1  1 (   9)->(  24   )
  86     16.760 135177.  1  1  0.0000 0.000000 1  1 (  10)->(  24   )
  87     16.760 135177.  1  1  0.0000 0.000000 1  1 (   9)->(  23   )
  88     16.794 135451.  1  1  0.0000 0.000000 1  1 (  13)->(  26   )
  89     16.794 135451.  1  1  0.0000 0.000000 1  1 (  12)->(  27   )
  90     16.819 135655.  1  1  0.0000 0.066248 1  1 (   8)->(  20   )
  91     16.819 135655.  1  1  0.0000 0.066248 1  1 (   8)->(  21   )
  92     16.958 136775.  1  1  0.0000 0.000151 1  1 (   7)->(  20   )
  93     16.958 136775.  1  1  0.0000 0.000151 1  1 (   7)->(  21   )
  94     16.979 136943.  1  1  0.0000 0.000000 1  1 (  13)->(  27   )
  95     16.979 136943.  1  1  0.0000 0.000000 1  1 (  12)->(  26   )
  96     17.150 138322.  1  1  0.0000 0.000000 1  1 (  11)->(  26   )
  97     17.150 138322.  1  1  0.0000 0.000000 1  1 (  11)->(  27   )
  98     17.730 142999.  1  1  0.0000 0.000000 1  1 (   8)->(  22   )
  99     18.417 148546.  1  1  0.0000 0.000000 1  1 (   8)->(  23   )
 100     18.417 148547.  1  1  0.0000 0.000000 1  1 (   8)->(  24   )
 101     18.527 149434.  1  1  0.0000 0.000000 1  1 (   7)->(  22   )
 102     19.007 153305.  1  1  0.0000 0.000000 1  1 (   7)->(  23   )
 103     19.007 153305.  1  1  0.0000 0.000000 1  1 (   7)->(  24   )
 104     19.115 154171.  1  1  0.0000 0.000000 1  1 (   6)->(  16   )
 105     19.115 154171.  1  1  0.0000 0.000000 1  1 (   6)->(  17   )
 106     19.165 154576.  1  1  0.0000 0.408713 1  1 (  13)->(  29   )
 107     19.165 154576.  1  1  0.0000 0.408713 1  1 (  12)->(  28   )
 108     19.272 155443.  1  1  0.0000 0.000000 1  1 (  10)->(  25   )
 109     19.272 155443.  1  1  0.0000 0.000000 1  1 (   9)->(  25   )
 110     19.589 157999.  1  1  0.0000 0.000000 1  1 (  11)->(  28   )
 111     19.589 157999.  1  1  0.0000 0.000000 1  1 (  11)->(  29   )
 112     19.781 159548.  1  1  0.0000 0.014094 1  1 (  10)->(  26   )
 113     19.781 159548.  1  1  0.0000 0.014094 1  1 (   9)->(  27   )
 114     19.849 160091.  1  1  0.0000 0.423295 1  1 (  13)->(  28   )
 115     19.849 160091.  1  1  0.0000 0.423296 1  1 (  12)->(  29   )
 116     20.106 162170.  1  1  0.0000 0.014326 1  1 (  10)->(  27   )
 117     20.106 162170.  1  1  0.0000 0.014326 1  1 (   9)->(  26   )
 118     20.330 163974.  1  1  0.0000 0.000000 1  1 (  11)->(  30   )
 119     20.372 164311.  1  1  0.0000 0.000000 1  1 (  13)->(  30   )
 120     20.372 164311.  1  1  0.0000 0.000000 1  1 (  12)->(  30   )
 121     20.490 165267.  1  1  0.0000 0.000000 1  1 (   8)->(  25   )
 122     20.743 167301.  1  1  0.0000 0.000000 1  1 (   5)->(  16   )
 123     20.743 167301.  1  1  0.0000 0.000000 1  1 (   4)->(  17   )
 124     20.842 168106.  1  1  0.0000 0.299212 1  1 (   5)->(  17   )
 125     20.842 168106.  1  1  0.0000 0.299212 1  1 (   4)->(  16   )
 126     21.350 172199.  1  1  0.0000 0.147768 1  1 (   8)->(  26   )
 127     21.350 172199.  1  1  0.0000 0.147768 1  1 (   8)->(  27   )
 128     21.416 172733.  1  1  0.0000 0.000000 1  1 (   7)->(  25   )
 129     21.463 173112.  1  1  0.0000 0.000000 1  1 (   6)->(  19   )
 130     21.959 177112.  1  1  0.0000 0.188609 1  1 (   7)->(  26   )
 131     21.959 177112.  1  1  0.0000 0.188609 1  1 (   7)->(  27   )
 132     22.031 177695.  1  1  0.0000 0.000000 1  1 (   6)->(  18   )
 133     22.071 178018.  1  1  0.0000 0.000000 1  1 (  10)->(  29   )
 134     22.071 178018.  1  1  0.0000 0.000000 1  1 (   9)->(  28   )
 135     22.265 179584.  1  1  0.0000 0.000000 1  1 (  10)->(  28   )
 136     22.265 179584.  1  1  0.0000 0.000000 1  1 (   9)->(  29   )
 137     22.863 184399.  1  1  0.0000 0.000000 1  1 (   6)->(  20   )
 138     22.863 184399.  1  1  0.0000 0.000000 1  1 (   6)->(  21   )
 139     22.875 184498.  1  1  0.0000 0.233423 1  1 (  10)->(  30   )
 140     22.875 184498.  1  1  0.0000 0.233423 1  1 (   9)->(  30   )
 141     23.141 186644.  1  1  0.0000 0.000000 1  1 (   5)->(  19   )
 142     23.141 186644.  1  1  0.0000 0.000000 1  1 (   4)->(  19   )
 143     23.775 191762.  1  1  0.0000 0.019786 1  1 (   5)->(  18   )
 144     23.775 191762.  1  1  0.0000 0.019786 1  1 (   4)->(  18   )
 145     24.287 195891.  1  1  0.0000 0.000000 1  1 (   7)->(  28   )
 146     24.287 195891.  1  1  0.0000 0.000000 1  1 (   7)->(  29   )
 147     24.516 197736.  1  1  0.0000 0.000000 1  1 (   8)->(  28   )
 148     24.516 197736.  1  1  0.0000 0.000000 1  1 (   8)->(  29   )
 149     24.586 198298.  1  1  0.0000 0.000000 1  1 (   5)->(  21   )
 150     24.586 198298.  1  1  0.0000 0.000000 1  1 (   4)->(  20   )
 151     24.670 198974.  1  1  0.0000 0.000000 1  1 (   5)->(  20   )
 152     24.670 198974.  1  1  0.0000 0.000000 1  1 (   4)->(  21   )
 153     24.736 199512.  1  1  0.0000 0.000000 1  1 (   6)->(  22   )
 154     25.012 201737.  1  1  0.0000 0.047227 1  1 (   6)->(  23   )
 155     25.012 201737.  1  1  0.0000 0.047227 1  1 (   6)->(  24   )
 156     25.042 201982.  1  1  0.0000 0.000000 1  1 (   7)->(  30   )
 157     25.583 206341.  1  1  0.0000 0.000000 1  1 (   8)->(  30   )
 158     25.947 209276.  1  1  0.0000 0.000000 1  1 (   5)->(  22   )
 159     25.947 209276.  1  1  0.0000 0.000000 1  1 (   4)->(  22   )
 160     26.303 212145.  1  1  0.0000 0.003511 1  1 (   5)->(  24   )
 161     26.303 212145.  1  1  0.0000 0.003511 1  1 (   4)->(  23   )
 162     26.713 215454.  1  1  0.0000 0.003565 1  1 (   5)->(  23   )
 163     26.713 215454.  1  1  0.0000 0.003565 1  1 (   4)->(  24   )
 164     27.461 221492.  1  1  0.0000 0.000000 1  1 (   6)->(  25   )
 165     28.118 226789.  1  1  0.0000 0.000000 1  1 (   6)->(  26   )
 166     28.118 226789.  1  1  0.0000 0.000000 1  1 (   6)->(  27   )
 167     28.623 230864.  1  1  0.0000 0.000000 1  1 (   3)->(  17   )
 168     28.623 230864.  1  1  0.0000 0.000000 1  1 (   2)->(  16   )
 169     28.628 230897.  1  1  0.0000 0.000000 1  1 (   3)->(  16   )
 170     28.628 230897.  1  1  0.0000 0.000000 1  1 (   2)->(  17   )
 171     28.744 231838.  1  1  0.0000 0.093304 1  1 (   5)->(  25   )
 172     28.744 231838.  1  1  0.0000 0.093304 1  1 (   4)->(  25   )
 173     29.348 236706.  1  1  0.0000 0.000000 1  1 (   5)->(  27   )
 174     29.348 236706.  1  1  0.0000 0.000000 1  1 (   4)->(  26   )
 175     29.516 238061.  1  1  0.0000 0.000000 1  1 (   5)->(  26   )
 176     29.516 238061.  1  1  0.0000 0.000000 1  1 (   4)->(  27   )
 177     30.361 244879.  1  1  0.0000 0.016429 1  1 (   6)->(  29   )
 178     30.361 244879.  1  1  0.0000 0.016429 1  1 (   6)->(  28   )
 179     30.913 249327.  1  1  0.0000 0.000000 1  1 (   6)->(  30   )
 180     30.974 249821.  1  1  0.0000 0.000000 1  1 (   3)->(  19   )
 181     30.974 249822.  1  1  0.0000 0.000000 1  1 (   2)->(  19   )
 182     31.533 254329.  1  1  0.0000 0.000000 1  1 (   3)->(  18   )
 183     31.533 254329.  1  1  0.0000 0.000000 1  1 (   2)->(  18   )
 184     32.019 258254.  1  1  0.0000 0.022597 1  1 (   5)->(  28   )
 185     32.019 258254.  1  1  0.0000 0.022597 1  1 (   4)->(  29   )
 186     32.187 259609.  1  1  0.0000 0.020216 1  1 (   3)->(  21   )
 187     32.187 259609.  1  1  0.0000 0.020216 1  1 (   2)->(  20   )
 188     32.354 260951.  1  1  0.0000 0.022833 1  1 (   5)->(  29   )
 189     32.354 260951.  1  1  0.0000 0.022833 1  1 (   4)->(  28   )
 190     32.581 262782.  1  1  0.0000 0.020463 1  1 (   3)->(  20   )
 191     32.581 262782.  1  1  0.0000 0.020463 1  1 (   2)->(  21   )
 192     33.138 267281.  1  1  0.0000 0.000000 1  1 (   5)->(  30   )
 193     33.138 267281.  1  1  0.0000 0.000000 1  1 (   4)->(  30   )
 194     33.642 271340.  1  1  0.0000 0.001560 1  1 (   3)->(  22   )
 195     33.642 271340.  1  1  0.0000 0.001560 1  1 (   2)->(  22   )
 196     34.180 275682.  1  1  0.0000 0.000000 1  1 (   3)->(  24   )
 197     34.180 275682.  1  1  0.0000 0.000000 1  1 (   2)->(  23   )
 198     34.191 275772.  1  1  0.0000 0.000000 1  1 (   3)->(  23   )
 199     34.191 275772.  1  1  0.0000 0.000000 1  1 (   2)->(  24   )
 200     36.562 294889.  1  1  0.0000 0.000000 1  1 (   3)->(  25   )
 201     36.562 294889.  1  1  0.0000 0.000000 1  1 (   2)->(  25   )
 202     37.198 300021.  1  1  0.0000 0.025703 1  1 (   3)->(  26   )
 203     37.198 300021.  1  1  0.0000 0.025703 1  1 (   2)->(  27   )
 204     37.317 300979.  1  1  0.0000 0.025785 1  1 (   3)->(  27   )
 205     37.317 300979.  1  1  0.0000 0.025785 1  1 (   2)->(  26   )
 206     39.158 315829.  1  1  0.0000 0.000000 1  1 (   1)->(  16   )
 207     39.158 315829.  1  1  0.0000 0.000000 1  1 (   1)->(  17   )
 208     39.829 321244.  1  1  0.0000 0.000000 1  1 (   3)->(  28   )
 209     39.829 321244.  1  1  0.0000 0.000000 1  1 (   2)->(  29   )
 210     39.845 321369.  1  1  0.0000 0.000000 1  1 (   3)->(  29   )
 211     39.845 321369.  1  1  0.0000 0.000000 1  1 (   2)->(  28   )
 212     40.830 329320.  1  1  0.0000 0.077822 1  1 (   3)->(  30   )
 213     40.830 329320.  1  1  0.0000 0.077822 1  1 (   2)->(  30   )
 214     41.506 334770.  1  1  0.0000 0.000000 1  1 (   1)->(  19   )
 215     42.149 339955.  1  1  0.0000 0.000000 1  1 (   1)->(  18   )
 216     42.912 346106.  1  1  0.0000 0.000000 1  1 (   1)->(  20   )
 217     42.912 346106.  1  1  0.0000 0.000000 1  1 (   1)->(  21   )
 218     44.004 354917.  1  1  0.0000 0.000000 1  1 (   1)->(  22   )
 219     44.512 359017.  1  1  0.0000 0.019954 1  1 (   1)->(  23   )
 220     44.512 359017.  1  1  0.0000 0.019954 1  1 (   1)->(  24   )
 221     47.330 381745.  1  1  0.0000 0.000000 1  1 (   1)->(  25   )
 222     48.083 387815.  1  1  0.0000 0.000000 1  1 (   1)->(  26   )
 223     48.083 387815.  1  1  0.0000 0.000000 1  1 (   1)->(  27   )
 224     50.658 408588.  1  1  0.0000 0.089275 1  1 (   1)->(  29   )
 225     50.658 408588.  1  1  0.0000 0.089275 1  1 (   1)->(  28   )
 226     50.955 410985.  1  1  0.0000 0.000000 1  1 (   1)->(  30   )

 Depression of ground-state after CI=          0. cm**-1 Energy= -2890.0037491 eV
 Dipole moment=  0.000000 -0.000000 -0.000000 tot=  0.000000 Debyes


  CI trans.  energy frequency wavelength oscillator ---------polarization---------    dipole   ------components----- 
 st.  symm.    eV      cm-1       nm      strength       x          y         z       moment     x       y       z 

   2      4.7082902    37975.    263.33  0.000000                                   0.000000   0.000  -0.000  -0.000
   3      5.3612330    43241.    231.26  0.000000                                   0.000000   0.000  -0.000  -0.000
   4      6.2211294    50177.    199.29  0.872452  -0.000049   1.000000  -0.000000  0.000000   0.000  -0.000  -0.000
   5      6.2211297    50177.    199.29  0.872452   1.000000   0.000049  -0.000000  0.000000   0.000  -0.000   0.000
   6      7.0620475    56959.    175.56  0.000000                                   0.000000   0.000  -0.000  -0.000
   7      7.0620501    56959.    175.56  0.000000                                   0.000000   0.000  -0.000   0.000
   8      7.5043990    60527.    165.21  0.000000                                   0.000000  -0.000   0.000  -0.000
   9      7.5044018    60527.    165.21  0.000000                                   0.000000  -0.000  -0.000  -0.000
  10      7.7174347    62245.    160.65  0.000000                                   0.000000   0.000  -0.000  -0.000
  11      7.7721346    62687.    159.52  0.000000                                   0.000000   0.000  -0.000  -0.000
  12      7.7721347    62687.    159.52  0.000000                                   0.000000   0.000  -0.000  -0.000
  13      7.7915629    62843.    159.13  0.000000                                   0.000000   0.000  -0.000   0.000
  14      7.8036508    62941.    158.88  0.000000                                   0.000000  -0.000  -0.000   0.000
  15      7.8036515    62941.    158.88  0.000000                                   0.000000  -0.000  -0.000  -0.000
  16      7.8309626    63161.    158.33  0.000254  -0.000000  -0.000000   1.000000  0.000000   0.000  -0.000  -0.000
  17      7.9389772    64032.    156.17  0.000000                                   0.000000  -0.000  -0.000   0.000
  18      9.1416210    73732.    135.63  0.000000                                   0.000000  -0.000  -0.000   0.000
  19      9.1416240    73732.    135.63  0.000000                                   0.000000   0.000   0.000  -0.000
  20      9.3070768    75067.    133.21  0.000000                                   0.000000  -0.000  -0.000   0.000
  21      9.3070795    75067.    133.21  0.000000                                   0.000000  -0.000   0.000   0.000
  22      9.3227268    75193.    132.99  0.187388  -0.000000   0.000000   1.000000  0.000000   0.000  -0.000  -0.000
  23      9.5039018    76654.    130.46  0.000000                                   0.000000   0.000  -0.000  -0.000
  24      9.5039036    76654.    130.46  0.000000                                   0.000000   0.000  -0.000  -0.000
  25      9.5329053    76888.    130.06  0.000000                                   0.000000   0.000  -0.000   0.000
  26      9.5329053    76888.    130.06  0.000000                                   0.000000  -0.000   0.000   0.000
  27      9.8502626    79448.    125.87  0.000000                                   0.000000  -0.000   0.000  -0.000
  28     10.2831117    82939.    120.57  0.000000                                   0.000000   0.000  -0.000  -0.000
  29     11.0898295    89446.    111.80  0.192663   1.000000   0.000002   0.000000  0.000000   0.000  -0.000  -0.000
  30     11.0898322    89446.    111.80  0.192664   0.000002  -1.000000   0.000000  0.000000   0.000  -0.000  -0.000
  31     11.1840746    90206.    110.86  0.000000                                   0.000000   0.000  -0.000  -0.000
  32     11.4789134    92584.    108.01  0.000000                                   0.000000   0.000  -0.000  -0.000
  33     11.4789143    92584.    108.01  0.000000                                   0.000000   0.000  -0.000  -0.000
  34     11.5192221    92909.    107.63  0.000000                                   0.000000  -0.000  -0.000  -0.000
  35     11.6795320    94202.    106.15  0.000000                                   0.000000  -0.000   0.000   0.000
  36     11.6997845    94365.    105.97  0.000000                                   0.000000   0.000  -0.000  -0.000
  37     11.8452546    95539.    104.67  0.000000                                   0.000000  -0.000  -0.000  -0.000
  38     11.8723608    95757.    104.43  0.000000                                   0.000000   0.000  -0.000  -0.000
  39     11.8723611    95757.    104.43  0.000000                                   0.000000  -0.000  -0.000   0.000
  40     11.9001969    95982.    104.19  0.000000                                   0.000000   0.000  -0.000  -0.000
  41     11.9001996    95982.    104.19  0.000000                                   0.000000   0.000  -0.000  -0.000
  42     11.9720287    96561.    103.56  0.000000                                   0.000000  -0.000  -0.000  -0.000
  43     12.5260982   101030.     98.98  0.000000                                   0.000000  -0.000  -0.000  -0.000
  44     12.5260994   101030.     98.98  0.000000                                   0.000000   0.000   0.000  -0.000
  45     12.5959828   101594.     98.43  0.000000                                   0.000000  -0.000   0.000  -0.000
  46     12.5959828   101594.     98.43  0.000000                                   0.000000  -0.000  -0.000  -0.000
  47     12.6687663   102181.     97.87  0.000000                                   0.000000   0.000  -0.000   0.000
  48     12.6687668   102181.     97.87  0.000000                                   0.000000   0.000  -0.000  -0.000
  49     13.0865389   105550.     94.74  0.000000                                   0.000000   0.000   0.000  -0.000
  50     13.0865412   105550.     94.74  0.000000                                   0.000000  -0.000  -0.000  -0.000
  51     13.1284259   105888.     94.44  0.000000                                   0.000000   0.000  -0.000  -0.000
  52     13.1739740   106256.     94.11  0.000000                                   0.000000  -0.000  -0.000  -0.000
  53     13.2188538   106618.     93.79  0.000000                                   0.000000  -0.000   0.000  -0.000
  54     13.2188590   106618.     93.79  0.000000                                   0.000000  -0.000   0.000   0.000
  55     13.3998659   108077.     92.53  0.000000                                   0.000000   0.000  -0.000  -0.000
  56     13.3998673   108077.     92.53  0.000000                                   0.000000   0.000  -0.000  -0.000
  57     13.6460167   110063.     90.86  0.000000                                   0.000000   0.000  -0.000  -0.000
  58     13.6496125   110092.     90.83  0.024670   1.000000  -0.000009   0.000000  0.000000   0.000  -0.000  -0.000
  59     13.6496137   110092.     90.83  0.024670  -0.000009  -1.000000   0.000000  0.000000   0.000  -0.000  -0.000
  60     13.8493222   111703.     89.52  0.003366  -0.000000  -0.000000  -1.000000  0.000000   0.000  -0.000  -0.000
  61     13.9480737   112499.     88.89  0.000000                                   0.000000   0.000  -0.000   0.000
  62     13.9480790   112499.     88.89  0.000000                                   0.000000   0.000  -0.000  -0.000
  63     14.3205237   115503.     86.58  0.000000                                   0.000000   0.000   0.000  -0.000
  64     14.3205258   115503.     86.58  0.000000                                   0.000000  -0.000  -0.000  -0.000
  65     14.6430651   118105.     84.67  0.070233   0.000006  -1.000000  -0.000000  0.000000  -0.000  -0.000  -0.000
  66     14.6430659   118105.     84.67  0.070233  -1.000000  -0.000006   0.000000  0.000000  -0.000  -0.000  -0.000
  67     14.7199968   118725.     84.23  0.000000                                   0.000000  -0.000  -0.000  -0.000
  68     14.7315997   118819.     84.16  0.000000                                   0.000000  -0.000  -0.000   0.000
  69     14.8319147   119628.     83.59  0.000000                                   0.000000  -0.000  -0.000  -0.000
  70     14.9612459   120671.     82.87  0.000000                                   0.000000  -0.000  -0.000  -0.000
  71     15.0544635   121423.     82.36  0.000000                                   0.000000  -0.000  -0.000  -0.000
  72     15.0544635   121423.     82.36  0.000000                                   0.000000   0.000  -0.000  -0.000
  73     15.4929215   124959.     80.03  0.013215   0.000000  -0.000000  -1.000000  0.000000   0.000  -0.000  -0.000
  74     15.5840769   125694.     79.56  0.000000                                   0.000000   0.000  -0.000  -0.000
  75     15.6465319   126198.     79.24  0.340507   0.000000   0.000000  -1.000000  0.000000   0.000  -0.000  -0.000
  76     15.8190679   127590.     78.38  0.000000                                   0.000000   0.000  -0.000   0.000
  77     15.9331367   128510.     77.82  0.000000                                   0.000000   0.000   0.000  -0.000
  78     15.9331393   128510.     77.82  0.000000                                   0.000000  -0.000  -0.000  -0.000
  79     15.9648670   128766.     77.66  0.063204  -1.000000  -0.000002   0.000000  0.000000   0.000  -0.000  -0.000
  80     15.9648684   128766.     77.66  0.063204   0.000002  -1.000000  -0.000000  0.000000   0.000  -0.000  -0.000
  81     16.0443686   129407.     77.28  0.000000                                   0.000000  -0.000   0.000  -0.000
  82     16.1751595   130462.     76.65  0.729380  -1.000000   0.000003  -0.000000  0.000000   0.000  -0.000  -0.000
  83     16.1751646   130462.     76.65  0.729380  -0.000003  -1.000000  -0.000000  0.000000   0.000  -0.000  -0.000
  84     16.4106898   132361.     75.55  0.000000                                   0.000000  -0.000  -0.000  -0.000
  85     16.4106910   132361.     75.55  0.000000                                   0.000000  -0.000  -0.000  -0.000
  86     16.6347775   134169.     74.53  0.000000                                   0.000000  -0.000  -0.000  -0.000
  87     16.6347791   134169.     74.53  0.000000                                   0.000000  -0.000  -0.000  -0.000
  88     16.7660558   135228.     73.95  0.000000                                   0.000000  -0.000   0.000  -0.000
  89     16.7666852   135233.     73.95  0.034788   1.000000   0.000005   0.000000  0.000000   0.000  -0.000  -0.000
  90     16.7666859   135233.     73.95  0.034789   0.000005  -1.000000   0.000000  0.000000   0.000  -0.000  -0.000
  91     16.7775975   135321.     73.90  0.000000                                   0.000000  -0.000   0.000  -0.000
  92     16.9735389   136901.     73.05  0.000000                                   0.000000   0.000  -0.000  -0.000
  93     17.1929068   138670.     72.11  0.008656   1.000000   0.000002  -0.000000  0.000000   0.000  -0.000  -0.000
  94     17.1929082   138671.     72.11  0.008656  -0.000002   1.000000  -0.000000  0.000000  -0.000  -0.000   0.000
  95     17.2191888   138882.     72.00  0.000000                                   0.000000  -0.000   0.000  -0.000
  96     17.5825203   141813.     70.52  0.000000                                   0.000000   0.000  -0.000  -0.000
  97     17.6582282   142424.     70.21  0.000000                                   0.000000   0.000   0.000  -0.000
  98     17.6582287   142424.     70.21  0.000000                                   0.000000  -0.000  -0.000  -0.000
  99     18.4886217   149121.     67.06  0.000000                                   0.000000   0.000  -0.000  -0.000
 100     18.5293804   149450.     66.91  0.000000                                   0.000000   0.000  -0.000  -0.000
 101     18.5293823   149450.     66.91  0.000000                                   0.000000  -0.000  -0.000  -0.000
 102     18.6722648   150602.     66.40  0.000000                                   0.000000   0.000  -0.000  -0.000
 103     18.8837388   152308.     65.66  0.000000                                   0.000000  -0.000  -0.000  -0.000
 104     18.8837390   152308.     65.66  0.000000                                   0.000000  -0.000  -0.000  -0.000
 105     19.1665636   154589.     64.69  1.195566  -0.000016   1.000000  -0.000000  0.000000   0.000  -0.000  -0.000
 106     19.1665641   154589.     64.69  1.195566   1.000000   0.000016   0.000000  0.000000   0.000  -0.000  -0.000
 107     19.2356672   155147.     64.46  0.000000                                   0.000000   0.000  -0.000  -0.000
 108     19.2356695   155147.     64.46  0.000000                                   0.000000   0.000  -0.000  -0.000
 109     19.2682142   155409.     64.35  0.000000                                   0.000000  -0.000   0.000  -0.000
 110     19.2682167   155409.     64.35  0.000000                                   0.000000  -0.000  -0.000  -0.000
 111     19.8029263   159722.     62.61  0.000000                                   0.000000  -0.000  -0.000  -0.000
 112     19.9325087   160767.     62.20  0.000000                                   0.000000   0.000  -0.000   0.000
 113     19.9325088   160767.     62.20  0.000000                                   0.000000   0.000  -0.000  -0.000
 114     20.0838661   161988.     61.73  0.120537  -0.000003   1.000000  -0.000000  0.000000   0.000  -0.000  -0.000
 115     20.0838666   161988.     61.73  0.120537   1.000000   0.000003   0.000000  0.000000   0.000  -0.000  -0.000
 116     20.0910600   162046.     61.71  0.000000  -1.000000  -0.000022  -0.000000  0.000000  -0.000  -0.000  -0.000
 117     20.4825979   165204.     60.53  0.000000                                   0.000000   0.000  -0.000   0.000
 118     20.5164803   165477.     60.43  0.000000                                   0.000000   0.000   0.000   0.000
 119     20.5164813   165477.     60.43  0.000000                                   0.000000  -0.000  -0.000  -0.000
 120     20.6275201   166373.     60.11  0.000000                                   0.000000   0.000  -0.000  -0.000
 121     20.6633990   166662.     60.00  0.000000                                   0.000000  -0.000   0.000  -0.000
 122     20.7817051   167616.     59.66  0.000000                                   0.000000   0.000  -0.000  -0.000
 123     20.7817053   167616.     59.66  0.000000                                   0.000000   0.000  -0.000  -0.000
 124     20.8941031   168523.     59.34  0.000000                                   0.000000   0.000  -0.000  -0.000
 125     21.0355526   169664.     58.94  0.517000  -0.000000   0.000000   1.000000  0.000000   0.000  -0.000  -0.000
 126     21.3629750   172304.     58.04  0.084996  -1.000000   0.000022  -0.000000  0.000000   0.000  -0.000  -0.000
 127     21.3629761   172304.     58.04  0.084996  -0.000022  -1.000000   0.000000  0.000000  -0.000  -0.000  -0.000
 128     21.4611372   173096.     57.77  0.000000                                   0.000000   0.000  -0.000  -0.000
 129     21.6008075   174223.     57.40  0.000000                                   0.000000  -0.000   0.000  -0.000
 130     21.7765477   175640.     56.93  0.000000                                   0.000000  -0.000  -0.000  -0.000
 131     22.0122586   177541.     56.32  0.042957  -0.000028  -1.000000  -0.000000  0.000000   0.000  -0.000  -0.000
 132     22.0122596   177541.     56.32  0.042957  -1.000000   0.000028   0.000000  0.000000  -0.000  -0.000  -0.000
 133     22.0291090   177677.     56.28  0.000000                                   0.000000   0.000  -0.000  -0.000
 134     22.0291104   177677.     56.28  0.000000                                   0.000000  -0.000  -0.000  -0.000
 135     22.0658714   177974.     56.19  0.000000                                   0.000000  -0.000   0.000   0.000
 136     22.2342930   179332.     55.76  0.000000                                   0.000000   0.000  -0.000  -0.000
 137     22.7699824   183653.     54.45  0.231711   0.000004   1.000000  -0.000000  0.000000  -0.000   0.000   0.000
 138     22.7699874   183653.     54.45  0.231711  -1.000000   0.000004   0.000000  0.000000  -0.000  -0.000   0.000
 139     23.0346496   185787.     53.82  0.000000                                   0.000000  -0.000  -0.000  -0.000
 140     23.0346510   185787.     53.82  0.000000                                   0.000000   0.000  -0.000  -0.000
 141     23.1422024   186655.     53.57  0.000000                                   0.000000  -0.000  -0.000  -0.000
 142     23.1422065   186655.     53.57  0.000000                                   0.000000  -0.000  -0.000   0.000
 143     23.8852961   192648.     51.91  0.001214   0.000001   1.000000  -0.000000  0.000000   0.000  -0.000   0.000
 144     23.8852994   192648.     51.91  0.001214   1.000000  -0.000001  -0.000000  0.000000   0.000  -0.000  -0.000
 145     23.9764340   193383.     51.71  0.000000                                   0.000000  -0.000  -0.000  -0.000
 146     23.9764341   193383.     51.71  0.000000                                   0.000000  -0.000  -0.000   0.000
 147     24.3432873   196342.     50.93  0.000000                                   0.000000  -0.000   0.000  -0.000
 148     24.3510573   196405.     50.92  0.000000                                   0.000000   0.000  -0.000  -0.000
 149     24.3510581   196405.     50.92  0.000000                                   0.000000   0.000  -0.000  -0.000
 150     24.6183611   198561.     50.36  0.000000                                   0.000000  -0.000  -0.000  -0.000
 151     24.8925361   200772.     49.81  0.000000                                   0.000000   0.000  -0.000  -0.000
 152     24.8950960   200793.     49.80  0.000000                                   0.000000  -0.000  -0.000  -0.000
 153     25.2995824   204055.     49.01  0.003519  -0.000005  -1.000000   0.000000  0.000000   0.000  -0.000  -0.000
 154     25.2995850   204055.     49.01  0.003519  -1.000000   0.000005   0.000000  0.000000  -0.000  -0.000  -0.000
 155     25.4426248   205209.     48.73  0.000000                                   0.000000   0.000  -0.000  -0.000
 156     25.4426254   205209.     48.73  0.000000                                   0.000000   0.000  -0.000  -0.000
 157     25.4434160   205216.     48.73  0.000000                                   0.000000  -0.000   0.000  -0.000
 158     26.0740562   210302.     47.55  0.000000                                   0.000000   0.000  -0.000  -0.000
 159     26.0740609   210302.     47.55  0.000000                                   0.000000   0.000  -0.000  -0.000
 160     26.2983695   212111.     47.15  0.000000                                   0.000000  -0.000  -0.000  -0.000
 161     26.4530691   213359.     46.87  0.019519  -1.000000   0.000018   0.000000  0.000000  -0.000  -0.000  -0.000
 162     26.4530695   213359.     46.87  0.019519   0.000018   1.000000   0.000000  0.000000  -0.000  -0.000  -0.000
 163     26.9320376   217222.     46.04  0.000000                                   0.000000  -0.000  -0.000  -0.000
 164     27.8600055   224707.     44.50  0.000000                                   0.000000   0.000  -0.000   0.000
 165     28.1874497   227348.     43.99  0.000000                                   0.000000   0.000   0.000  -0.000
 166     28.1874500   227348.     43.99  0.000000                                   0.000000  -0.000  -0.000  -0.000
 167     28.6261331   230886.     43.31  0.000000                                   0.000000   0.000  -0.000  -0.000
 168     28.6285206   230905.     43.31  0.000000                                   0.000000   0.000  -0.000  -0.000
 169     28.7415044   231816.     43.14  0.000000                                   0.000000   0.000  -0.000   0.000
 170     28.7415044   231816.     43.14  0.000000                                   0.000000   0.000  -0.000   0.000
 171     28.8204393   232453.     43.02  0.102079  -0.000001   1.000000  -0.000000  0.000000   0.000  -0.000  -0.000
 172     28.8204436   232453.     43.02  0.102079   1.000000   0.000001   0.000000  0.000000   0.000  -0.000  -0.000
 173     29.3278186   236545.     42.28  0.000000                                   0.000000  -0.000  -0.000  -0.000
 174     29.4673579   237671.     42.07  0.000000                                   0.000000  -0.000  -0.000  -0.000
 175     29.4673581   237671.     42.07  0.000000                                   0.000000  -0.000  -0.000  -0.000
 176     29.7787545   240182.     41.64  0.000000                                   0.000000  -0.000  -0.000  -0.000
 177     30.3600476   244871.     40.84  0.012493   0.000016  -1.000000   0.000000  0.000000   0.000  -0.000  -0.000
 178     30.3600480   244871.     40.84  0.012493  -1.000000  -0.000016  -0.000000  0.000000   0.000  -0.000  -0.000
 179     31.0111574   250122.     39.98  0.000000                                   0.000000  -0.000   0.000   0.000
 180     31.0111625   250123.     39.98  0.000000                                   0.000000  -0.000  -0.000  -0.000
 181     31.0367534   250329.     39.95  0.000000                                   0.000000  -0.000   0.000  -0.000
 182     31.4705047   253827.     39.40  0.000000                                   0.000000   0.000  -0.000  -0.000
 183     31.4705094   253827.     39.40  0.000000                                   0.000000   0.000  -0.000   0.000
 184     31.5492600   254463.     39.30  0.000000                                   0.000000  -0.000   0.000  -0.000
 185     31.8900705   257211.     38.88  0.078443   0.000014  -1.000000   0.000000  0.000000  -0.000   0.000  -0.000
 186     31.8900706   257211.     38.88  0.078443   1.000000   0.000014   0.000000  0.000000  -0.000   0.000  -0.000
 187     32.1751070   259510.     38.53  0.000000                                   0.000000   0.000  -0.000  -0.000
 188     32.3126006   260619.     38.37  0.000000                                   0.000000   0.000  -0.000  -0.000
 189     33.0712630   266738.     37.49  0.029651   1.000000  -0.000009   0.000000  0.000000   0.000  -0.000  -0.000
 190     33.0712637   266738.     37.49  0.029651  -0.000009  -1.000000  -0.000000  0.000000   0.000  -0.000   0.000
 191     33.5486830   270589.     36.96  0.000000                                   0.000000  -0.000   0.000  -0.000
 192     33.5486869   270589.     36.96  0.000000                                   0.000000  -0.000  -0.000  -0.000
 193     33.6979957   271793.     36.79  0.004880   1.000000  -0.000008   0.000000  0.000000   0.000  -0.000  -0.000
 194     33.6980005   271793.     36.79  0.004880   0.000008   1.000000   0.000000  0.000000   0.000  -0.000  -0.000
 195     33.8427182   272961.     36.64  0.000000                                   0.000000   0.000  -0.000   0.000
 196     34.1593695   275515.     36.30  0.000000                                   0.000000  -0.000  -0.000  -0.000
 197     34.2385086   276153.     36.21  0.000000                                   0.000000  -0.000  -0.000  -0.000
 198     34.4382178   277764.     36.00  0.000000                                   0.000000  -0.000  -0.000  -0.000
 199     34.4382179   277764.     36.00  0.000000                                   0.000000  -0.000  -0.000  -0.000
 200     36.6587805   295674.     33.82  0.000000                                   0.000000   0.000  -0.000  -0.000
 201     36.6587858   295674.     33.82  0.000000                                   0.000000   0.000  -0.000  -0.000
 202     37.2374836   300341.     33.30  0.000000                                   0.000000  -0.000  -0.000  -0.000
 203     37.3314194   301099.     33.21  0.087618  -1.000000  -0.000018  -0.000000  0.000000  -0.000  -0.000  -0.000
 204     37.3314194   301099.     33.21  0.087618  -0.000018   1.000000   0.000000  0.000000  -0.000  -0.000  -0.000
 205     37.5235681   302649.     33.04  0.000000                                   0.000000  -0.000  -0.000  -0.000
 206     39.2107761   316257.     31.62  0.000000                                   0.000000   0.000  -0.000  -0.000
 207     39.2107779   316257.     31.62  0.000000                                   0.000000   0.000  -0.000   0.000
 208     39.7451815   320567.     31.19  0.000000                                   0.000000   0.000  -0.000  -0.000
 209     39.7483744   320593.     31.19  0.000000                                   0.000000  -0.000  -0.000  -0.000
 210     40.1599809   323913.     30.87  0.000000                                   0.000000   0.000  -0.000  -0.000
 211     40.1599815   323913.     30.87  0.000000                                   0.000000   0.000  -0.000  -0.000
 212     41.0155111   330813.     30.23  0.172652  -0.000007  -1.000000  -0.000000  0.000000  -0.000  -0.000  -0.000
 213     41.0155165   330813.     30.23  0.172652  -1.000000   0.000007   0.000000  0.000000  -0.000  -0.000  -0.000
 214     41.5730332   335310.     29.82  0.000000                                   0.000000  -0.000   0.000  -0.000
 215     42.4325355   342242.     29.22  0.000000                                   0.000000   0.000  -0.000   0.000
 216     43.1363607   347919.     28.74  0.000000                                   0.000000  -0.000  -0.000  -0.000
 217     43.1363615   347919.     28.74  0.000000                                   0.000000   0.000   0.000  -0.000
 218     44.1011097   355700.     28.11  0.000000                                   0.000000   0.000  -0.000  -0.000
 219     44.6042258   359758.     27.80  0.012215   0.000007   1.000000   0.000000  0.000000  -0.000  -0.000  -0.000
 220     44.6042283   359758.     27.80  0.012215   1.000000  -0.000007   0.000000  0.000000  -0.000  -0.000  -0.000
 221     47.5122174   383213.     26.10  0.000000                                   0.000000   0.000  -0.000  -0.000
 222     48.2670620   389301.     25.69  0.000000                                   0.000000   0.000  -0.000  -0.000
 223     48.2670621   389301.     25.69  0.000000                                   0.000000  -0.000  -0.000  -0.000
 224     50.7681487   409474.     24.42  0.186712  -0.000168   1.000000   0.000000  0.000000   0.000  -0.000  -0.000
 225     50.7681487   409474.     24.42  0.186712   1.000000   0.000168   0.000000  0.000000   0.000  -0.000  -0.000
 226     51.0014327   411355.     24.31  0.000000                                   0.000000  -0.000   0.000  -0.000
 
 Polarizability (au  ) xx=   72.32 xy=    0.00 yy=   72.32 xz=   -0.00 yz=   -0.00 zz=   10.64
 Polarizability (A**3) xx=   10.72 xy=    0.00 yy=   10.72 xz=   -0.00 yz=   -0.00 zz=    1.58
 
 
 Major CI contributions to CI states
 
State    1  0.0000     CI coeff  CI percent
    Config       1   1.00000000  1.00000000
 Total coeff printed             1.00000000
  
State    2  4.7083     CI coeff  CI percent
    Config       2  -0.70710706  0.50000039
    Config       3  -0.70710650  0.49999960
 Total coeff printed             0.99999999
  
State    3  5.3612     CI coeff  CI percent
    Config       4  -0.69336511  0.48075517
    Config       5   0.69336203  0.48075091
    Config      41   0.06195233  0.00383809
    Config      67  -0.04502828  0.00202755
    Config      68  -0.04502804  0.00202752
    Config     114  -0.07040806  0.00495729
    Config     115  -0.07040821  0.00495732
    Config     116   0.05743666  0.00329897
    Config     117  -0.05743645  0.00329895
    Config     157  -0.07024330  0.00493412
 Total coeff printed             0.99084588
  
State    4  6.2211     CI coeff  CI percent
    Config       4  -0.68863686  0.47422072
    Config       5  -0.68863995  0.47422498
    Config      33  -0.12015695  0.01443769
    Config      59   0.05639690  0.00318061
    Config      60   0.05639685  0.00318060
    Config      82   0.06689412  0.00447482
    Config      90   0.08841327  0.00781691
    Config     116   0.04288284  0.00183894
    Config     117   0.04288317  0.00183897
    Config     127  -0.04086217  0.00166972
    Config     139   0.04070873  0.00165720
 Total coeff printed             0.98854116
  
State    5  6.2211     CI coeff  CI percent
    Config       2   0.68863811  0.47422245
    Config       3  -0.68863868  0.47422323
    Config      32  -0.12015702  0.01443771
    Config      57  -0.05639683  0.00318060
    Config      58   0.05639684  0.00318060
    Config      81   0.06689416  0.00447483
    Config      91   0.08841318  0.00781689
    Config     112   0.04288311  0.00183896
    Config     113  -0.04288303  0.00183895
    Config     126   0.04086209  0.00166971
    Config     140   0.04070871  0.00165720
 Total coeff printed             0.98854114
  
State    6  7.0620     CI coeff  CI percent
    Config       6  -0.98743045  0.97501890
    Config      22   0.04157856  0.00172878
    Config      23  -0.04157839  0.00172876
    Config      39   0.04308134  0.00185600
    Config      42  -0.12898885  0.01663812
 Total coeff printed             0.99697056
  
State    7  7.0621     CI coeff  CI percent
    Config       7   0.98743044  0.97501888
    Config      20   0.04157847  0.00172877
    Config      21   0.04157846  0.00172877
    Config      40  -0.04308130  0.00185600
    Config      43  -0.12898895  0.01663815
 Total coeff printed             0.99697056
  
State    8  7.5044     CI coeff  CI percent
    Config      14   0.97734809  0.95520929
    Config      24  -0.07848071  0.00615922
    Config      35   0.07203568  0.00518914
    Config      36  -0.07203567  0.00518914
    Config      61  -0.06829842  0.00466467
    Config      88   0.04624175  0.00213830
    Config      89   0.04624172  0.00213830
    Config      99  -0.04230800  0.00178997
    Config     108   0.05353518  0.00286602
    Config     120   0.05835435  0.00340523
    Config     148   0.05621242  0.00315984
 Total coeff printed             0.99190911
  
State    9  7.5044     CI coeff  CI percent
    Config      15  -0.97734806  0.95520922
    Config      25  -0.07848097  0.00615926
    Config      37   0.07203574  0.00518915
    Config      38   0.07203561  0.00518913
    Config      62  -0.06829835  0.00466466
    Config      94  -0.04624177  0.00213830
    Config      95   0.04624177  0.00213830
    Config     100   0.04230801  0.00178997
    Config     109   0.05353519  0.00286602
    Config     119   0.05835441  0.00340524
    Config     147   0.05621237  0.00315983
 Total coeff printed             0.99190908
  
State   10  7.7174     CI coeff  CI percent
    Config       8  -0.68685247  0.47176631
    Config       9   0.68682508  0.47172869
    Config      34  -0.23122331  0.05346422
 Total coeff printed             0.99695922
  
State   11  7.7721     CI coeff  CI percent
    Config       6  -0.04688259  0.00219798
    Config      16  -0.69325617  0.48060412
    Config      17   0.69320943  0.48053932
    Config      50  -0.18358270  0.03370261
    Config     104   0.04479274  0.00200639
 Total coeff printed             0.99905042
  
State   12  7.7721     CI coeff  CI percent
    Config       7  -0.04688261  0.00219798
    Config      12   0.69325567  0.48060342
    Config      13   0.69320999  0.48054009
    Config      51   0.18358252  0.03370254
    Config     105  -0.04479272  0.00200639
 Total coeff printed             0.99905042
  
State   13  7.7916     CI coeff  CI percent
    Config      16  -0.69616423  0.48464463
    Config      17  -0.69621082  0.48470950
    Config      69  -0.15808431  0.02499065
    Config     122  -0.04509861  0.00203388
    Config     123   0.04509762  0.00203380
 Total coeff printed             0.99841246
  
State   14  7.8037     CI coeff  CI percent
    Config       8   0.69163882  0.47836426
    Config       9   0.69166596  0.47840180
    Config      19  -0.14172026  0.02008463
    Config      63  -0.12988793  0.01687087
    Config      76  -0.04058654  0.00164727
 Total coeff printed             0.99536884
  
State   15  7.8037     CI coeff  CI percent
    Config      10   0.69165546  0.47838727
    Config      11  -0.69164920  0.47837862
    Config      18   0.14172097  0.02008483
    Config      64  -0.12988777  0.01687083
    Config      77  -0.04058652  0.00164727
 Total coeff printed             0.99536882
  
State   16  7.8310     CI coeff  CI percent
    Config      12   0.70091080  0.49127595
    Config      13  -0.70095594  0.49133923
    Config      75   0.11999306  0.01439833
 Total coeff printed             0.99701351
  
State   17  7.9390     CI coeff  CI percent
    Config      10  -0.70550186  0.49773287
    Config      11  -0.70550798  0.49774151
    Config      48  -0.04728071  0.00223547
    Config      49   0.04728075  0.00223547
 Total coeff printed             0.99994531
  
State   18  9.1416     CI coeff  CI percent
    Config      10   0.09233946  0.00852658
    Config      11  -0.09233943  0.00852657
    Config      18  -0.88862661  0.78965724
    Config      26   0.30729468  0.09443002
    Config      30   0.15349828  0.02356172
    Config      31   0.15349770  0.02356154
    Config      45   0.08161854  0.00666159
    Config      48   0.09181374  0.00842976
    Config      49   0.09181379  0.00842977
    Config      52   0.08743013  0.00764403
    Config      64   0.13286281  0.01765253
    Config     110  -0.05302530  0.00281168
 Total coeff printed             0.99989303
  
State   19  9.1416     CI coeff  CI percent
    Config       8  -0.09233894  0.00852648
    Config       9  -0.09233898  0.00852649
    Config      19  -0.88862614  0.78965641
    Config      27   0.30729563  0.09443060
    Config      28  -0.15349868  0.02356184
    Config      29   0.15349823  0.02356171
    Config      44   0.08161902  0.00666167
    Config      46   0.09181392  0.00842980
    Config      47  -0.09181377  0.00842977
    Config      53  -0.08743031  0.00764406
    Config      63  -0.13286276  0.01765251
    Config     111  -0.05302536  0.00281169
 Total coeff printed             0.99989303
  
State   20  9.3071     CI coeff  CI percent
    Config      10   0.06188414  0.00382965
    Config      11  -0.06188413  0.00382965
    Config      18  -0.38187809  0.14583087
    Config      26  -0.72177461  0.52095859
    Config      30  -0.35954522  0.12927277
    Config      31  -0.35954375  0.12927171
    Config      45  -0.20020805  0.04008326
    Config      52  -0.15078858  0.02273720
    Config      64   0.05273876  0.00278138
 Total coeff printed             0.99859506
  
State   21  9.3071     CI coeff  CI percent
    Config       8   0.06188411  0.00382964
    Config       9   0.06188384  0.00382961
    Config      19   0.38187938  0.14583186
    Config      27   0.72177414  0.52095790
    Config      28  -0.35954501  0.12927262
    Config      29   0.35954338  0.12927144
    Config      44   0.20020840  0.04008340
    Config      53  -0.15078851  0.02273718
    Config      63   0.05273896  0.00278140
 Total coeff printed             0.99859505
  
State   22  9.3227     CI coeff  CI percent
    Config      20   0.68123395  0.46407970
    Config      21  -0.68123419  0.46408003
    Config      56  -0.25435551  0.06469673
 Total coeff printed             0.99285645
  
State   23  9.5039     CI coeff  CI percent
    Config      14  -0.12129645  0.01471283
    Config      24  -0.96718159  0.93544022
    Config      35   0.10779702  0.01162020
    Config      36  -0.10779694  0.01162018
    Config      61  -0.08385710  0.00703201
    Config      88   0.04606614  0.00212209
    Config      89   0.04606610  0.00212209
    Config      99  -0.04217625  0.00177884
    Config     108   0.04908506  0.00240934
    Config     120   0.05121857  0.00262334
    Config     148   0.04864136  0.00236598
 Total coeff printed             0.99384712
  
State   24  9.5039     CI coeff  CI percent
    Config      15  -0.12129670  0.01471289
    Config      25   0.96718158  0.93544020
    Config      37  -0.10779707  0.01162021
    Config      38  -0.10779679  0.01162015
    Config      62   0.08385693  0.00703198
    Config      94   0.04606613  0.00212209
    Config      95  -0.04606611  0.00212209
    Config     100  -0.04217623  0.00177883
    Config     109  -0.04908503  0.00240934
    Config     119  -0.05121860  0.00262334
    Config     147  -0.04864130  0.00236598
 Total coeff printed             0.99384710
  
State   25  9.5329     CI coeff  CI percent
    Config       7   0.07984626  0.00637542
    Config      20  -0.67363247  0.45378070
    Config      21  -0.67363215  0.45378027
    Config      40  -0.16203081  0.02625398
    Config      43   0.23055235  0.05315439
    Config      96  -0.07528647  0.00566805
 Total coeff printed             0.99901282
  
State   26  9.5329     CI coeff  CI percent
    Config       6   0.07984624  0.00637542
    Config      22   0.67363741  0.45378736
    Config      23  -0.67362714  0.45377353
    Config      39  -0.16203096  0.02625403
    Config      42  -0.23055244  0.05315443
    Config      97  -0.07528647  0.00566805
 Total coeff printed             0.99901282
  
State   27  9.8503     CI coeff  CI percent
    Config      22  -0.69954961  0.48936966
    Config      23  -0.69955935  0.48938328
    Config      70   0.08359578  0.00698825
    Config      71  -0.08359594  0.00698828
    Config     118  -0.07632797  0.00582596
 Total coeff printed             0.99855543
  
State   28 10.2831     CI coeff  CI percent
    Config      28  -0.69628650  0.48481489
    Config      29  -0.69628419  0.48481167
    Config      34  -0.04127674  0.00170377
    Config      46   0.06863493  0.00471075
    Config      47   0.06863489  0.00471075
    Config      83   0.04241287  0.00179885
    Config     129   0.12022502  0.01445406
 Total coeff printed             0.99700473
  
State   29 11.0898     CI coeff  CI percent
    Config       2   0.08093494  0.00655047
    Config       3  -0.08093496  0.00655047
    Config      32   0.98207574  0.96447276
    Config      65  -0.06490293  0.00421239
    Config      66  -0.06490272  0.00421236
    Config      92  -0.07191638  0.00517197
 Total coeff printed             0.99117042
  
State   30 11.0898     CI coeff  CI percent
    Config       4   0.08093492  0.00655046
    Config       5   0.08093487  0.00655045
    Config      33  -0.98207575  0.96447278
    Config      67  -0.06490279  0.00421237
    Config      68   0.06490275  0.00421237
    Config      93  -0.07191641  0.00517197
 Total coeff printed             0.99117040
  
State   31 11.1841     CI coeff  CI percent
    Config      30  -0.70693108  0.49975156
    Config      31   0.70692723  0.49974611
 Total coeff printed             0.99949767
  
State   32 11.4789     CI coeff  CI percent
    Config      27  -0.50576023  0.25579341
    Config      28  -0.58173719  0.33841816
    Config      29   0.58174077  0.33842233
    Config      44  -0.25514816  0.06510058
 Total coeff printed             0.99773447
  
State   33 11.4789     CI coeff  CI percent
    Config      26   0.50576082  0.25579401
    Config      30  -0.58173617  0.33841697
    Config      31  -0.58174180  0.33842353
    Config      45   0.25514696  0.06509997
 Total coeff printed             0.99773448
  
State   34 11.5192     CI coeff  CI percent
    Config      35   0.69375415  0.48129482
    Config      36   0.69375075  0.48129011
    Config      74  -0.13797364  0.01903673
    Config      84  -0.08819543  0.00777843
    Config      85   0.08819506  0.00777837
 Total coeff printed             0.99717845
  
State   35 11.6795     CI coeff  CI percent
    Config       4  -0.06838576  0.00467661
    Config       5   0.06838587  0.00467663
    Config      41  -0.97502080  0.95066556
    Config      59   0.05184744  0.00268816
    Config      60  -0.05184736  0.00268815
    Config      67   0.08048190  0.00647734
    Config      68   0.08048165  0.00647730
    Config     114   0.06774277  0.00458908
    Config     115   0.06774274  0.00458908
    Config     116  -0.05149891  0.00265214
    Config     117   0.05149889  0.00265214
    Config     157   0.05397870  0.00291370
 Total coeff printed             0.99574587
  
State   36 11.6998     CI coeff  CI percent
    Config       8   0.14208941  0.02018940
    Config       9  -0.14208952  0.02018943
    Config      28   0.06923315  0.00479323
    Config      29   0.06923487  0.00479347
    Config      34  -0.83799438  0.70223457
    Config      46   0.32524478  0.10578417
    Config      47   0.32524398  0.10578364
    Config      83   0.18896294  0.03570699
 Total coeff printed             0.99947491
  
State   37 11.8453     CI coeff  CI percent
    Config      37   0.69556172  0.48380611
    Config      38  -0.69546791  0.48367562
    Config      78  -0.09029781  0.00815369
    Config      94  -0.08870006  0.00786770
    Config      95  -0.08870209  0.00786806
    Config     128   0.04998664  0.00249866
 Total coeff printed             0.99386984
  
State   38 11.8724     CI coeff  CI percent
    Config      14   0.08307158  0.00690089
    Config      24  -0.16260326  0.02643982
    Config      35  -0.68045995  0.46302575
    Config      36   0.68046350  0.46303058
    Config      54   0.06176986  0.00381552
    Config      61   0.13457422  0.01811022
    Config     103  -0.05771043  0.00333049
    Config     108   0.05101148  0.00260217
    Config     120   0.06355422  0.00403914
 Total coeff printed             0.99129457
  
State   39 11.8724     CI coeff  CI percent
    Config      15   0.08307154  0.00690088
    Config      25   0.16260319  0.02643980
    Config      37   0.68041385  0.46296301
    Config      38   0.68050970  0.46309345
    Config      55   0.06176989  0.00381552
    Config      62  -0.13457396  0.01811015
    Config     102   0.05771051  0.00333050
    Config     109  -0.05101139  0.00260216
    Config     119  -0.06355422  0.00403914
 Total coeff printed             0.99129462
  
State   40 11.9002     CI coeff  CI percent
    Config       6   0.06407597  0.00410573
    Config      22   0.10559071  0.01114940
    Config      23  -0.10559109  0.01114948
    Config      39   0.94799523  0.89869496
    Config      42  -0.07744607  0.00599789
    Config      50   0.05787532  0.00334955
    Config      70  -0.10825161  0.01171841
    Config      71  -0.10825169  0.01171843
    Config      97   0.20202235  0.04081303
 Total coeff printed             0.99869688
  
State   41 11.9002     CI coeff  CI percent
    Config       7   0.06407592  0.00410572
    Config      20  -0.10559089  0.01114944
    Config      21  -0.10559074  0.01114941
    Config      40   0.94799520  0.89869490
    Config      43   0.07744596  0.00599788
    Config      51  -0.05787522  0.00334954
    Config      72  -0.10825185  0.01171846
    Config      73   0.10825169  0.01171843
    Config      96   0.20202254  0.04081311
 Total coeff printed             0.99869688
  
State   42 11.9720     CI coeff  CI percent
    Config       8   0.07717084  0.00595534
    Config       9  -0.07717109  0.00595538
    Config      28  -0.04627195  0.00214109
    Config      29  -0.04627248  0.00214114
    Config      34  -0.49001934  0.24011895
    Config      46  -0.58637569  0.34383644
    Config      47  -0.58637405  0.34383453
    Config      83  -0.23667511  0.05601511
 Total coeff printed             0.99999798
  
State   43 12.5261     CI coeff  CI percent
    Config       6  -0.10764316  0.01158705
    Config      22   0.17669121  0.03121979
    Config      23  -0.17669152  0.03121989
    Config      39   0.08693572  0.00755782
    Config      42   0.94394675  0.89103546
    Config      50  -0.05743006  0.00329821
    Config      70   0.09347644  0.00873785
    Config      71   0.09347623  0.00873781
    Config      97  -0.07544415  0.00569182
 Total coeff printed             0.99908569
  
State   44 12.5261     CI coeff  CI percent
    Config       7   0.10764327  0.01158707
    Config      20   0.17669106  0.03121973
    Config      21   0.17669153  0.03121990
    Config      40  -0.08693568  0.00755781
    Config      43   0.94394678  0.89103553
    Config      51  -0.05742964  0.00329816
    Config      72  -0.09347646  0.00873785
    Config      73   0.09347629  0.00873782
    Config      96   0.07544417  0.00569182
 Total coeff printed             0.99908570
  
State   45 12.5960     CI coeff  CI percent
    Config      18  -0.14915825  0.02224818
    Config      26   0.08248690  0.00680409
    Config      45  -0.24303632  0.05906665
    Config      48  -0.65258484  0.42586697
    Config      49  -0.65258110  0.42586209
    Config      52   0.09435274  0.00890244
    Config      64  -0.18582480  0.03453086
    Config      77   0.05162553  0.00266520
    Config     110   0.11050457  0.01221126
 Total coeff printed             0.99815774
  
State   46 12.5960     CI coeff  CI percent
    Config      19  -0.14915824  0.02224818
    Config      27   0.08248830  0.00680432
    Config      44  -0.24303967  0.05906828
    Config      46  -0.65258139  0.42586248
    Config      47   0.65258305  0.42586464
    Config      53  -0.09435363  0.00890261
    Config      63   0.18582459  0.03453078
    Config      76  -0.05162562  0.00266520
    Config     111   0.11050448  0.01221124
 Total coeff printed             0.99815773
  
State   47 12.6688     CI coeff  CI percent
    Config      19  -0.06214858  0.00386245
    Config      27  -0.25198495  0.06349642
    Config      28  -0.08381303  0.00702462
    Config      29   0.08381346  0.00702470
    Config      44   0.86856197  0.75439989
    Config      46  -0.17942361  0.03219283
    Config      47   0.17942389  0.03219293
    Config      53   0.29153046  0.08499001
    Config      63   0.09443093  0.00891720
    Config     141   0.06827286  0.00466118
 Total coeff printed             0.99876223
  
State   48 12.6688     CI coeff  CI percent
    Config      18  -0.06214800  0.00386237
    Config      26  -0.25198409  0.06349598
    Config      30   0.08381242  0.00702452
    Config      31   0.08381310  0.00702464
    Config      45   0.86856305  0.75440178
    Config      48  -0.17942172  0.03219215
    Config      49  -0.17942070  0.03219179
    Config      52  -0.29153171  0.08499074
    Config      64  -0.09443014  0.00891705
    Config     142  -0.06827306  0.00466121
 Total coeff printed             0.99876223
  
State   49 13.0865     CI coeff  CI percent
    Config      35  -0.06171546  0.00380880
    Config      36   0.06171568  0.00380883
    Config      54  -0.97252572  0.94580628
    Config      61  -0.07106808  0.00505067
    Config      84  -0.10046600  0.01009342
    Config      85  -0.10046568  0.01009335
    Config      88  -0.05596298  0.00313186
    Config      89  -0.05596285  0.00313184
    Config      99  -0.09154737  0.00838092
    Config     103  -0.04162137  0.00173234
 Total coeff printed             0.99503830
  
State   50 13.0865     CI coeff  CI percent
    Config      37   0.06171530  0.00380878
    Config      38   0.06171591  0.00380885
[...]
    Config     184  -0.49639683  0.24640981
    Config     185   0.49640412  0.24641705
    Config     186  -0.49584956  0.24586679
    Config     187  -0.49585344  0.24587064
    Config     194   0.04494286  0.00201986
 Total coeff printed             0.99160871
  
State  187 32.1751     CI coeff  CI percent
    Config     157  -0.05804056  0.00336871
    Config     188   0.58540775  0.34270224
    Config     189  -0.58541643  0.34271239
    Config     190   0.38859065  0.15100269
    Config     191   0.38859908  0.15100925
    Config     215   0.06028797  0.00363464
 Total coeff printed             0.99442991
  
State  188 32.3126     CI coeff  CI percent
    Config     156   0.04136925  0.00171141
    Config     160  -0.05436079  0.00295510
    Config     161   0.05436095  0.00295511
    Config     184  -0.38718984  0.14991597
    Config     185  -0.38718653  0.14991341
    Config     186   0.58802700  0.34577575
    Config     187  -0.58802473  0.34577308
 Total coeff printed             0.99899984
  
State  189 33.0713     CI coeff  CI percent
    Config       2   0.04152385  0.00172423
    Config       3  -0.04152386  0.00172423
    Config     140  -0.05034740  0.00253486
    Config     155  -0.04112448  0.00169122
    Config     178   0.17545219  0.03078347
    Config     184  -0.48463973  0.23487567
    Config     185   0.48464251  0.23487836
    Config     186   0.48888858  0.23901204
    Config     187   0.48889162  0.23901502
    Config     213  -0.05437474  0.00295661
 Total coeff printed             0.98919572
  
State  190 33.0713     CI coeff  CI percent
    Config       4   0.04152407  0.00172425
    Config       5   0.04152370  0.00172422
    Config     139   0.05034739  0.00253486
    Config     154  -0.04112449  0.00169122
    Config     177  -0.17545203  0.03078342
    Config     188  -0.48464218  0.23487804
    Config     189  -0.48464003  0.23487596
    Config     190   0.48889162  0.23901501
    Config     191  -0.48888868  0.23901214
    Config     212   0.05437481  0.00295662
 Total coeff printed             0.98919574
  
State  191 33.5487     CI coeff  CI percent
    Config      24  -0.04267799  0.00182141
    Config     133   0.04045961  0.00163698
    Config     134  -0.04045974  0.00163699
    Config     159   0.04636693  0.00214989
    Config     166  -0.09491771  0.00900937
    Config     182  -0.28731512  0.08254998
    Config     192  -0.88146810  0.77698601
    Config     198  -0.22583031  0.05099933
    Config     199  -0.22582755  0.05099808
    Config     200  -0.05406705  0.00292325
    Config     216   0.06953336  0.00483489
 Total coeff printed             0.98554618
  
State  192 33.5487     CI coeff  CI percent
    Config      25   0.04267793  0.00182141
    Config     135   0.04045967  0.00163698
    Config     136   0.04045966  0.00163698
    Config     158  -0.04636681  0.00214988
    Config     165  -0.09491754  0.00900934
    Config     183   0.28731493  0.08254987
    Config     193  -0.88146789  0.77698563
    Config     196   0.22583010  0.05099923
    Config     197  -0.22582911  0.05099879
    Config     201   0.05406703  0.00292324
    Config     217  -0.06953332  0.00483488
 Total coeff printed             0.98554625
  
State  193 33.6980     CI coeff  CI percent
    Config     160   0.05057570  0.00255790
    Config     161   0.05057566  0.00255790
    Config     194  -0.99286254  0.98577603
    Config     220   0.04620164  0.00213459
 Total coeff printed             0.99302642
  
State  194 33.6980     CI coeff  CI percent
    Config     162   0.05057526  0.00255786
    Config     163  -0.05057599  0.00255793
    Config     195   0.99286257  0.98577608
    Config     219  -0.04620167  0.00213459
 Total coeff printed             0.99302646
  
State  195 33.8427     CI coeff  CI percent
    Config       4  -0.06050263  0.00366057
    Config       5   0.06050269  0.00366058
    Config      41   0.07751448  0.00600849
    Config     114   0.07210984  0.00519983
    Config     115   0.07210980  0.00519982
    Config     116  -0.07689864  0.00591340
    Config     117   0.07689870  0.00591341
    Config     157   0.14062143  0.01977439
    Config     162  -0.05796537  0.00335998
    Config     163  -0.05796485  0.00335992
    Config     164  -0.13747179  0.01889849
    Config     188   0.37035749  0.13716467
    Config     189  -0.37035980  0.13716638
    Config     190  -0.55465296  0.30763990
    Config     191  -0.55465590  0.30764317
    Config     204  -0.08976861  0.00805840
    Config     205   0.08976871  0.00805842
    Config     215   0.06756938  0.00456562
    Config     221  -0.07774892  0.00604489
 Total coeff printed             0.99729035
  
State  196 34.1594     CI coeff  CI percent
    Config     196   0.70261521  0.49366814
    Config     197   0.70261088  0.49366205
    Config     218  -0.06720772  0.00451688
 Total coeff printed             0.99184707
  
State  197 34.2385     CI coeff  CI percent
    Config     173   0.06365673  0.00405218
    Config     174   0.06365596  0.00405208
    Config     179   0.04162848  0.00173293
    Config     198  -0.70270550  0.49379502
    Config     199   0.70268353  0.49376415
 Total coeff printed             0.99739636
  
State  198 34.4382     CI coeff  CI percent
    Config      15   0.04165901  0.00173547
    Config      25   0.04511390  0.00203526
    Config     109   0.04048655  0.00163916
    Config     147   0.06404512  0.00410178
    Config     149   0.04306087  0.00185424
    Config     150  -0.04306112  0.00185426
    Config     165  -0.06742502  0.00454613
    Config     183   0.17856582  0.03188575
    Config     193  -0.24249224  0.05880249
    Config     196  -0.65729304  0.43203414
    Config     197   0.65729801  0.43204068
    Config     201   0.10053255  0.01010679
    Config     222  -0.06417796  0.00411881
 Total coeff printed             0.98675497
  
State  199 34.4382     CI coeff  CI percent
    Config      14  -0.04165897  0.00173547
    Config      24   0.04511387  0.00203526
    Config     108   0.04048652  0.00163916
    Config     148   0.06404524  0.00410179
    Config     151  -0.04306154  0.00185430
    Config     152  -0.04306054  0.00185421
    Config     166   0.06742498  0.00454613
    Config     182   0.17856531  0.03188557
    Config     192   0.24249137  0.05880206
    Config     198  -0.65728354  0.43202165
    Config     199  -0.65730799  0.43205379
    Config     200   0.10053258  0.01010680
    Config     223   0.06417792  0.00411881
 Total coeff printed             0.98675499
  
State  200 36.6588     CI coeff  CI percent
    Config     166   0.04869623  0.00237132
    Config     173  -0.05897716  0.00347830
    Config     174   0.05897724  0.00347831
    Config     192   0.07383139  0.00545107
    Config     198  -0.05365101  0.00287843
    Config     199  -0.05365121  0.00287845
    Config     200  -0.98393985  0.96813763
    Config     210  -0.04782652  0.00228738
    Config     211   0.04782648  0.00228737
    Config     216  -0.05911589  0.00349469
 Total coeff printed             0.99674297
  
State  201 36.6588     CI coeff  CI percent
    Config     165  -0.04869615  0.00237131
    Config     175  -0.05897717  0.00347831
    Config     176  -0.05897718  0.00347831
    Config     193  -0.07383140  0.00545108
    Config     196  -0.05365102  0.00287843
    Config     197   0.05365105  0.00287844
    Config     201  -0.98393985  0.96813763
    Config     208   0.04782666  0.00228739
    Config     209   0.04782659  0.00228738
    Config     217  -0.05911595  0.00349470
 Total coeff printed             0.99674297
  
State  202 37.2375     CI coeff  CI percent
    Config     184  -0.08354255  0.00697936
    Config     185  -0.08354100  0.00697910
    Config     202   0.70081709  0.49114459
    Config     203   0.70077467  0.49108513
 Total coeff printed             0.99618818
  
State  203 37.3314     CI coeff  CI percent
    Config     172   0.07125233  0.00507690
    Config     178  -0.04609932  0.00212515
    Config     202  -0.70078897  0.49110518
    Config     203   0.70083140  0.49116465
    Config     213   0.06830342  0.00466536
    Config     220  -0.05177398  0.00268054
 Total coeff printed             0.99681778
  
State  204 37.3314     CI coeff  CI percent
    Config     171   0.07125228  0.00507689
    Config     177   0.04609930  0.00212515
    Config     204   0.70081919  0.49114753
    Config     205   0.70080118  0.49112229
    Config     212  -0.06830351  0.00466537
    Config     219  -0.05177399  0.00268055
 Total coeff printed             0.99681777
  
State  205 37.5236     CI coeff  CI percent
    Config     157   0.05550026  0.00308028
    Config     162  -0.04119942  0.00169739
    Config     163  -0.04119981  0.00169742
    Config     164  -0.07443428  0.00554046
    Config     190  -0.07366904  0.00542713
    Config     191  -0.07366906  0.00542713
    Config     204   0.69102414  0.47751436
    Config     205  -0.69104237  0.47753955
    Config     215   0.12189674  0.01485882
 Total coeff printed             0.99278255
  
State  206 39.2108     CI coeff  CI percent
    Config     180  -0.06907914  0.00477193
    Config     206  -0.99735854  0.99472405
 Total coeff printed             0.99949598
  
State  207 39.2108     CI coeff  CI percent
    Config     181  -0.06907923  0.00477194
    Config     207  -0.99735853  0.99472404
 Total coeff printed             0.99949598
  
State  208 39.7452     CI coeff  CI percent
    Config     210  -0.70452244  0.49635187
    Config     211  -0.70451330  0.49633899
    Config     226   0.05222300  0.00272724
 Total coeff printed             0.99541811
  
State  209 39.7484     CI coeff  CI percent
    Config     208   0.70353177  0.49495696
    Config     209  -0.70352252  0.49494394
    Config     218   0.06301618  0.00397104
 Total coeff printed             0.99387193
  
State  210 40.1600     CI coeff  CI percent
    Config     148   0.04364785  0.00190513
    Config     166   0.05451144  0.00297150
    Config     182   0.06593076  0.00434686
    Config     200  -0.05208203  0.00271254
    Config     210   0.69445660  0.48226996
    Config     211  -0.69446585  0.48228281
    Config     216  -0.12470350  0.01555096
 Total coeff printed             0.99203977
  
State  211 40.1600     CI coeff  CI percent
    Config     147  -0.04364783  0.00190513
    Config     165   0.05451147  0.00297150
    Config     183  -0.06593083  0.00434687
    Config     201   0.05208220  0.00271256
    Config     208   0.69445653  0.48226988
    Config     209   0.69446589  0.48228287
    Config     217   0.12470348  0.01555096
 Total coeff printed             0.99203977
  
State  212 41.0155     CI coeff  CI percent
    Config     177  -0.05359049  0.00287194
    Config     190   0.04010631  0.00160852
    Config     191  -0.04010640  0.00160852
    Config     204  -0.04616566  0.00213127
    Config     205  -0.04616583  0.00213128
    Config     212  -0.99163625  0.98334246
 Total coeff printed             0.99369399
  
State  213 41.0155     CI coeff  CI percent
    Config     178  -0.05359046  0.00287194
    Config     186  -0.04010629  0.00160851
    Config     187  -0.04010634  0.00160852
    Config     202  -0.04616566  0.00213127
    Config     203   0.04616572  0.00213127
    Config     213  -0.99163626  0.98334248
 Total coeff printed             0.99369399
  
State  214 41.5730     CI coeff  CI percent
    Config     169  -0.04394374  0.00193105
    Config     170  -0.04394380  0.00193106
    Config     214  -0.99778949  0.99558387
 Total coeff printed             0.99944598
  
State  215 42.4325     CI coeff  CI percent
    Config     157  -0.05828313  0.00339692
    Config     164   0.04153643  0.00172527
    Config     188  -0.04932592  0.00243305
    Config     189   0.04932591  0.00243305
    Config     204  -0.07741791  0.00599353
    Config     205   0.07741807  0.00599356
    Config     215   0.98184817  0.96402582
    Config     221   0.07344892  0.00539474
 Total coeff printed             0.99139594
  
State  216 43.1364     CI coeff  CI percent
    Config     148  -0.04317333  0.00186394
    Config     192  -0.05621376  0.00315999
    Config     200   0.06160558  0.00379525
    Config     210  -0.07924692  0.00628007
    Config     211   0.07924712  0.00628011
    Config     216  -0.98225872  0.96483220
    Config     223  -0.07327218  0.00536881
 Total coeff printed             0.99158036
  
State  217 43.1364     CI coeff  CI percent
    Config     147   0.04317325  0.00186393
    Config     193  -0.05621375  0.00315999
    Config     201  -0.06160567  0.00379526
    Config     208  -0.07924686  0.00628006
    Config     209  -0.07924714  0.00628011
    Config     217   0.98225873  0.96483221
    Config     222  -0.07327218  0.00536881
 Total coeff printed             0.99158036
  
State  218 44.1011     CI coeff  CI percent
    Config     196   0.05109704  0.00261091
    Config     197   0.05109704  0.00261091
    Config     208  -0.04265240  0.00181923
    Config     209   0.04265230  0.00181922
    Config     218   0.99501871  0.99006223
 Total coeff printed             0.99892249
  
State  219 44.6042     CI coeff  CI percent
    Config     195  -0.04665184  0.00217639
    Config     219  -0.99633576  0.99268495
 Total coeff printed             0.99486135
  
State  220 44.6042     CI coeff  CI percent
    Config     194   0.04665183  0.00217639
    Config     220   0.99633577  0.99268496
 Total coeff printed             0.99486135
  
State  221 47.5122     CI coeff  CI percent
    Config     215  -0.06767098  0.00457936
    Config     221   0.99261258  0.98527974
 Total coeff printed             0.98985910
  
State  222 48.2671     CI coeff  CI percent
    Config     217   0.06739096  0.00454154
    Config     222   0.99298636  0.98602191
 Total coeff printed             0.99056345
  
State  223 48.2671     CI coeff  CI percent
    Config     216  -0.06739096  0.00454154
    Config     223   0.99298636  0.98602191
 Total coeff printed             0.99056346
  
State  224 50.7681     CI coeff  CI percent
    Config     224  -0.99785168  0.99570798
 Total coeff printed             0.99570798
  
State  225 50.7681     CI coeff  CI percent
    Config     225  -0.99785168  0.99570798
 Total coeff printed             0.99570798
  
State  226 51.0014     CI coeff  CI percent
    Config     226   0.99832729  0.99665737
 Total coeff printed             0.99665737
  

 -------------------------------------------------------------------------------
 INDO CIS
 benzene



     NO PARAMETERS MARKED FOR OPTIMIZATION, SO 1SCF WAS USED  
     SCF FIELD WAS ACHIEVED                                   


                              INDO CALCULATION
                                                       MOPAC2016 (Version: 20.173L)
                                                       Tue Jul  7 10:01:36 2020




          FINAL HEAT OF FORMATION =     -22252.39899 KCAL/MOL =  -93104.03738 KJ/MOL


          TOTAL ENERGY            =      -1022.97528 EV
          ELECTRONIC ENERGY       =      -2890.00375 EV  POINT GROUP:     D6h 
          CORE-CORE REPULSION     =       1867.02847 EV
          COSMO AREA              =        120.08 SQUARE ANGSTROMS
          COSMO VOLUME            =        108.57 CUBIC ANGSTROMS

          IONIZATION POTENTIAL    =          8.966811 EV
          HOMO LUMO ENERGIES (EV) =         -8.967  0.842
          NO. OF FILLED LEVELS    =         15
          MOLECULAR WEIGHT        =         78.1134

          MOLECULAR DIMENSIONS (Angstroms)

            Atom       Atom       Distance
            H     2    H     1     4.96842
            H     4    H     3     4.30278
            H     1    H     2     0.00000


          SCF CALCULATIONS        =          1
 
          WALL-CLOCK TIME         =          0.488 SECONDS
          COMPUTATION TIME        =          3.011 SECONDS




   ATOM   CHEMICAL          X               Y               Z
  NUMBER   SYMBOL      (ANGSTROMS)     (ANGSTROMS)     (ANGSTROMS)
 
     1       H          0.00000000      2.48421200      0.00000000   
     2       H          0.00000000     -2.48421200      0.00000000   
     3       H          2.15139000      1.24210600      0.00000000   
     4       H         -2.15139000     -1.24210600      0.00000000   
     5       H         -2.15139000      1.24210600      0.00000000   
     6       H          2.15139000     -1.24210600      0.00000000   
     7       C          0.00000000      1.39679200      0.00000000   
     8       C          0.00000000     -1.39679200      0.00000000   
     9       C          1.20965700      0.69839600      0.00000000   
    10       C         -1.20965700     -0.69839600      0.00000000   
    11       C         -1.20965700      0.69839600      0.00000000   
    12       C          1.20965700     -0.69839600      0.00000000   

                             CARTESIAN COORDINATES

   1    H        0.000000000     2.484212000     0.000000000
   2    H        0.000000000    -2.484212000     0.000000000
   3    H        2.151390000     1.242106000     0.000000000
   4    H       -2.151390000    -1.242106000     0.000000000
   5    H       -2.151390000     1.242106000     0.000000000
   6    H        2.151390000    -1.242106000     0.000000000
   7    C        0.000000000     1.396792000     0.000000000
   8    C        0.000000000    -1.396792000     0.000000000
   9    C        1.209657000     0.698396000     0.000000000
  10    C       -1.209657000    -0.698396000     0.000000000
  11    C       -1.209657000     0.698396000     0.000000000
  12    C        1.209657000    -0.698396000     0.000000000


           Empirical Formula: C6 H6  =    12 atoms



      MOLECULAR POINT GROUP   :   D6h 


                  EIGENVALUES  
 -43.49882 -32.89454 -32.89454 -25.17473 -25.17472 -23.50145 -17.37566 -17.36218
 -15.23975 -15.23974 -13.36409 -12.44223 -12.44223  -8.96681  -8.96681   0.84186
   0.84186   3.18151   3.19021   4.06383   4.06383   5.24521   5.89019   5.89020
   8.46956   9.14849   9.14849  11.76971  11.76971  12.63967


              NET ATOMIC CHARGES AND DIPOLE CONTRIBUTIONS

  ATOM NO.   TYPE          CHARGE      No. of ELECS.   s-Pop       p-Pop       
    1          H           0.021639        0.9784     0.97836
    2          H           0.021639        0.9784     0.97836
    3          H           0.021639        0.9784     0.97836
    4          H           0.021639        0.9784     0.97836
    5          H           0.021639        0.9784     0.97836
    6          H           0.021639        0.9784     0.97836
    7          C          -0.021639        4.0216     1.08010     2.94154
    8          C          -0.021639        4.0216     1.08010     2.94154
    9          C          -0.021639        4.0216     1.08010     2.94154
   10          C          -0.021639        4.0216     1.08010     2.94154
   11          C          -0.021639        4.0216     1.08010     2.94154
   12          C          -0.021639        4.0216     1.08010     2.94154
 DIPOLE           X         Y         Z       TOTAL
 POINT-CHG.    -0.000    -0.000     0.000     0.000
 HYBRID        -0.000     0.000    -0.000     0.000
 SUM           -0.000    -0.000    -0.000     0.000


          ATOMIC ORBITAL ELECTRON POPULATIONS

     Atom    s        px        py        pz   
    1  H   0.97836
    2  H   0.97836
    3  H   0.97836
    4  H   0.97836
    5  H   0.97836
    6  H   0.97836
    7  C   1.08010   0.99706   0.94448   1.00000
    8  C   1.08010   0.99706   0.94448   1.00000
    9  C   1.08010   0.95762   0.98391   1.00000
   10  C   1.08010   0.95762   0.98391   1.00000
   11  C   1.08010   0.95762   0.98391   1.00000
   12  C   1.08010   0.95762   0.98391   1.00000

 **********************
 *                    *
 * JOB ENDED NORMALLY *
 *                    *
 **********************



 TOTAL JOB TIME:             0.53 SECONDS

 == MOPAC DONE ==
