 *******************************************************************************
 **                                                                           **
 **                              MOPAC v22.0.6                                **
 **                                                                           **
 *******************************************************************************
 **          Digital Object Identifier (DOI): 10.5281/zenodo.6511958          **
 **    Visit the DOI location for information on how to cite this program.    **
 *******************************************************************************

                              PM7 CALCULATION RESULTS

 *******************************************************************************
 *  CALCULATION DONE:                                Thu Apr 13 11:25:40 2023  *
 *  RESEQ      - RESEQUENCE Z-MATRIX INTO NORMAL PDB FORMAT
 *  START_RES  - STARTING RESIDUE NUMBERS DEFINED
 *  Keyword:     START_RES=(40, 50, 60) 
 *  GEO_DAT    - DATA SET GEOMETRY IS IN FILE "Check_TERs.pdb"
 *  CHAINS     - PDB CHAIN LETTERS EXPLICITLY DEFINED
 *  Keyword:     CHAINS=(B) 
 *  RESIDUES   - DETERMINE THE SEQUENCE OF RESIDUES
 *  T=         - A TIME OF 172800.0 SECONDS REQUESTED
 *  DUMP=N     - RESTART FILE WRITTEN EVERY 7200.0 SECONDS REQUESTED
 *  HTML       - WRITE HTML SCRIPT TO READ PDB FILE USING JSMOL
 *******************************************************************************
 geo_dat="Check_TERs.pdb" start_res=(40, 50, 60) chains=(B) residues reseq HTML
 Test to show that PDB files are correctly manipulated

   ATOM   CHEMICAL          X               Y               Z
  NUMBER   SYMBOL      (ANGSTROMS)     (ANGSTROMS)     (ANGSTROMS)

     1       N          0.00000000  *   0.00000000  *   0.00000000  *
     2       C          1.46300000  *   0.00000000  *   0.00000000  *
     3       C          2.06000000  *   1.42400000  *   0.00000000  *
     4       O          3.25200000  *   1.58800000  *   0.20400000  *
     5       C          2.02400000  *  -0.79600000  *  -1.17800000  *
     6       C          2.44500000  *  -2.15900000  *  -0.73100000  *
     7       O          2.59600000  *  -2.54500000  *   0.40800000  *
     8       O          2.68000000  *  -2.96000000  *  -1.78100000  *
     9       N          1.19600000  *   2.47600000  *  -0.11700000  *
    10       C          1.68500000  *   3.84600000  *  -0.12600000  *
    11       C          1.30500000  *   4.56200000  *   1.18000000  *
    12       O          2.02300000  *   5.47400000  *   1.57900000  *
    13       C          1.19100000  *   4.64300000  *  -1.34500000  *
    14       C         -0.31100000  *   4.88300000  *  -1.43800000  *
    15       C         -1.07700000  *   3.71100000  *  -1.96900000  *
    16       O         -2.31100000  *   4.08700000  *  -2.34700000  *
    17       O         -0.73900000  *   2.55200000  *  -2.06500000  *
    18       N          0.20400000  *   4.19200000  *   1.89200000  *
    19       C         -0.18500000  *   4.94900000  *   3.08300000  *
    20       C         -0.68200000  *   3.98000000  *   4.16700000  *
    21       O         -1.40500000  *   3.03200000  *   3.92800000  *
    22       C         -1.37000000  *   5.89100000  *   2.77400000  *
    23       C         -0.89500000  *   7.21700000  *   2.20300000  *
    24       S         -0.26000000  *   8.31500000  *   3.52700000  *
    25       C         -1.47800000  *   9.65100000  *   3.56500000  *
    26       N         -0.35300000  *   4.32800000  *   5.45200000  *
    27       C         -0.80600000  *   3.50900000  *   6.57500000  *
    28       C         -1.66000000  *   4.43700000  *   7.46200000  *
    29       O         -1.14100000  *   5.35100000  *   8.09600000  *
    30       C          0.38900000  *   3.00000000  *   7.39600000  *
    31       C         -0.10200000  *   2.07200000  *   8.50500000  *
    32       C          1.05700000  *   1.46400000  *   9.31100000  *
    33       N          2.12100000  *   2.39900000  *   9.71000000  *
    34       C          1.82000000  *   3.51800000  *  10.51400000  *
    35       N          0.68900000  *   3.44400000  *  11.34800000  *
    36       N          2.72300000  *   4.46000000  *  10.56200000  *
    37       N         -3.00100000  *   4.25300000  *   7.56900000  *
    38       C         -3.83300000  *   5.27300000  *   8.22100000  *
    39       C         -3.87900000  *   5.12600000  *   9.75200000  *
    40       O         -3.70400000  *   4.08400000  *  10.35600000  *
    41       C         -3.80600000  *   3.30200000  *   6.77900000  *
    42       C         -5.26000000  *   5.06800000  *   7.67200000  *
    43       C         -5.27500000  *   3.65800000  *   7.06900000  *
    44       N         -4.25900000  *   6.28000000  *  10.38900000  *
    45       C         -4.48600000  *   6.33900000  *  11.83600000  *
    46       C         -5.49600000  *   7.48300000  *  12.05700000  *
    47       O         -5.48100000  *   8.49600000  *  11.37400000  *
    48       C         -3.18000000  *   6.66500000  *  12.56900000  *
    49       S         -3.41900000  *   6.89600000  *  14.36700000  *
    50       N         -6.44800000  *   7.28900000  *  13.01800000  *
    51       C         -7.40900000  *   8.35100000  *  13.31300000  *
    52       C         -6.81100000  *   9.20200000  *  14.45700000  *
    53       O         -6.65300000  *   8.76000000  *  15.58600000  *
    54       C         -8.74900000  *   7.74200000  *  13.77400000  *
    55       C         -9.66500000  *   7.51600000  *  12.63800000  *
    56       C        -10.08900000  *   6.30700000  *  12.10600000  *
    57       N        -11.01500000  *   6.53700000  *  11.08200000  *
    58       C        -10.35100000  *   8.55800000  *  11.92200000  *
    59       C        -11.20700000  *   7.91200000  *  10.97200000  *
    60       C        -10.33500000  *   9.95300000  *  12.00200000  *
    61       C        -12.06100000  *   8.64500000  *  10.13700000  *
    62       C        -11.18300000  *  10.67000000  *  11.18100000  *
    63       C        -12.04400000  *  10.02000000  *  10.27100000  *
    64       N         -5.65100000  *  21.73100000  *  21.99100000  *
    65       C         -4.96000000  *  22.58700000  *  22.94500000  *
    66       C         -5.96300000  *  23.51400000  *  23.64900000  *
    67       O         -6.98200000  *  23.93400000  *  23.13600000  *
    68       C         -3.94600000  *  23.49700000  *  22.21500000  *
    69       C         -2.68000000  *  22.74600000  *  21.94700000  *
    70       C         -2.55400000  *  21.95900000  *  20.80200000  *
    71       C         -1.62100000  *  22.83500000  *  22.85300000  *
    72       C         -1.35500000  *  21.29900000  *  20.54400000  *
    73       C         -0.43000000  *  22.16100000  *  22.59800000  *
    74       C         -0.29300000  *  21.40100000  *  21.43900000  *
    75       N         -5.63300000  *  23.85400000  *  24.94600000  *
    76       C         -6.33700000  *  24.96600000  *  25.57800000  *
    77       C         -5.75800000  *  26.26600000  *  24.98800000  *
    78       O         -4.61700000  *  26.32600000  *  24.55600000  *
    79       C         -6.11500000  *  24.96000000  *  27.10300000  *
    80       C         -7.42000000  *  25.14900000  *  27.87300000  *
    81       C         -7.96400000  *  26.54300000  *  27.69800000  *
    82       O         -8.69700000  *  26.85100000  *  26.75300000  *
    83       N         -7.59300000  *  27.50700000  *  28.58100000  *
    84       N         -6.57900000  *  27.36100000  *  24.95000000  *
    85       C         -6.19800000  *  28.53800000  *  24.17500000  *
    86       C         -5.10500000  *  29.37000000  *  24.85900000  *
    87       O         -4.46600000  *  30.18500000  *  24.21100000  *
    88       C         -7.39800000  *  29.45800000  *  23.92000000  *
    89       C         -8.55000000  *  28.76300000  *  23.16400000  *
    90       C         -9.52700000  *  29.83900000  *  22.68000000  *
    91       C         -8.03800000  *  27.92600000  *  21.99200000  *
    92       N         -4.88300000  *  29.22200000  *  26.20900000  *
    93       C         -3.70300000  *  29.81900000  *  26.83700000  *
    94       C         -2.49900000  *  28.84500000  *  26.85600000  *
    95       O         -1.48300000  *  29.13300000  *  27.47800000  *
    96       C         -4.02100000  *  30.22200000  *  28.28200000  *
    97       C         -4.27100000  *  29.03200000  *  29.14200000  *
    98       O         -4.89100000  *  28.03300000  *  28.80600000  *
    99       O         -3.71000000  *  29.11700000  *  30.34900000  *
   100       O         -6.57800000  *  10.19200000  *  14.29300000  *
   101       S          2.13700000  *  12.53400000  *  23.50400000  *
   102       P          0.40200000  *  13.86800000  *  18.90100000  *
   103       O          7.27100000  *  17.15300000  *  31.38800000  *
   104       O          2.04300000  *  10.99600000  *  24.33300000  *
   105       O          2.99000000  *  13.21800000  *  24.87000000  *
   106       O          3.50400000  *  12.88900000  *  22.47200000  *
   107       O          1.28400000  *  11.84900000  *  22.13800000  *
   108       O          0.23700000  *  12.24400000  *  19.63600000  *
   109       O          1.26400000  *  14.44100000  *  20.36100000  *
   110       O         -0.46100000  *  13.29400000  *  17.44100000  *
   111       O         -0.86700000  *  15.10300000  *  19.16500000  *
   112       H         -0.32900000  *  -0.41800000  *   0.85900000  *
   113       H         -0.32900000  *   0.95300000  *  -0.06700000  *
   114       H          1.70500000  *  -0.50000000  *   0.93800000  *
   115       H          2.88900000  *  -0.27300000  *  -1.58500000  *
   116       H          1.25500000  *  -0.89500000  *  -1.94400000  *
   117       H          2.97800000  *  -3.86100000  *  -1.46400000  *
   118       H          0.20400000  *   2.30800000  *  -0.19800000  *
   119       H          2.76600000  *   3.73400000  *  -0.20300000  *
   120       H          1.51600000  *   4.08400000  *  -2.22300000  *
   121       H          1.70300000  *   5.60400000  *  -1.30600000  *
   122       H         -0.46800000  *   5.73800000  *  -2.09600000  *
   123       H         -0.67000000  *   5.11600000  *  -0.43500000  *
   124       H         -2.82200000  *   3.29600000  *  -2.68300000  *
   125       H         -0.34400000  *   3.39700000  *   1.59700000  *
   126       H          0.71300000  *   5.49400000  *   3.37400000  *
   127       H         -1.91700000  *   6.07800000  *   3.69800000  *
   128       H         -2.02200000  *   5.40500000  *   2.04800000  *
   129       H         -0.09500000  *   7.02900000  *   1.48600000  *
   130       H         -1.73100000  *   7.70900000  *   1.70600000  *
   131       H         -1.19800000  *  10.37600000  *   4.32900000  *
   132       H         -1.51000000  *  10.14200000  *   2.59200000  *
   133       H         -2.46100000  *   9.24000000  *   3.79600000  *
   134       H          0.20400000  *   5.15300000  *   5.62400000  *
   135       H         -1.35300000  *   2.65600000  *   6.17300000  *
   136       H          0.90900000  *   3.84600000  *   7.84600000  *
   137       H          1.06900000  *   2.44800000  *   6.74700000  *
   138       H         -0.73400000  *   2.64000000  *   9.18800000  *
   139       H         -0.67300000  *   1.25800000  *   8.05900000  *
   140       H          0.66200000  *   1.03500000  *  10.23200000  *
   141       H          1.53600000  *   0.68800000  *   8.71400000  *
   142       H          3.11000000  *   2.14000000  *   9.33200000  *
   143       H          0.52800000  *   4.16100000  *  12.05500000  *
   144       H          0.02900000  *   2.67200000  *  11.24600000  *
   145       H          2.63600000  *   5.21500000  *  11.24200000  *
   146       H         -3.38200000  *   6.23800000  *   7.99100000  *
   147       H         -3.62300000  *   2.27200000  *   7.08600000  *
   148       H         -3.61900000  *   3.41000000  *   5.71100000  *
   149       H         -5.49400000  *   5.79000000  *   6.89000000  *
   150       H         -6.00500000  *   5.12300000  *   8.46500000  *
   151       H         -5.71600000  *   2.96900000  *   7.79000000  *
   152       H         -5.86900000  *   3.66900000  *   6.15500000  *
   153       H         -4.39300000  *   7.12900000  *   9.85900000  *
   154       H         -4.84500000  *   5.36600000  *  12.17300000  *
   155       H         -2.47600000  *   5.84500000  *  12.42400000  *
   156       H         -2.76500000  *   7.58700000  *  12.16200000  *
   157       H         -2.64500000  *   7.11100000  *  14.94600000  *
   158       H         -6.48600000  *   6.41500000  *  13.52200000  *
   159       H         -7.56300000  *   8.92300000  *  12.39900000  *
   160       H         -9.21900000  *   8.42900000  *  14.47800000  *
   161       H         -8.54800000  *   6.78900000  *  14.26300000  *
   162       H         -9.69600000  *   5.37100000  *  12.50100000  *
   163       H        -11.51400000  *   5.90600000  *  10.47000000  *
   164       H         -9.67400000  *  10.47700000  *  12.69300000  *
   165       H        -12.72000000  *   8.17700000  *   9.40600000  *
   166       H        -11.19500000  *  11.75900000  *  11.22800000  *
   167       H        -12.70900000  *  10.63500000  *   9.66500000  *
   168       H         -5.47200000  *  20.76500000  *  22.22600000  *
   169       H         -6.64200000  *  21.91900000  *  22.03900000  *
   170       H         -4.47900000  *  21.89300000  *  23.63500000  *
   171       H         -3.72100000  *  24.36100000  *  22.84000000  *
   172       H         -4.37200000  *  23.82500000  *  21.26700000  *
   173       H         -3.39100000  *  21.86000000  *  20.10900000  *
   174       H         -1.72700000  *  23.43100000  *  23.75900000  *
   175       H         -1.25000000  *  20.70200000  *  19.63900000  *
   176       H          0.39600000  *  22.22800000  *  23.30600000  *
   177       H          0.64500000  *  20.88600000  *  21.23200000  *
   178       H         -4.91900000  *  23.33600000  *  25.43800000  *
   179       H         -7.39800000  *  24.83900000  *  25.36300000  *
   180       H         -5.43300000  *  25.77300000  *  27.35500000  *
   181       H         -5.67300000  *  24.00400000  *  27.38300000  *
   182       H         -7.23200000  *  24.97200000  *  28.93200000  *
   183       H         -8.15400000  *  24.43300000  *  27.50100000  *
   184       H         -7.12500000  *  28.24900000  *  28.08000000  *
   185       H         -8.41700000  *  27.86700000  *  29.04000000  *
   186       H         -7.45100000  *  27.35600000  *  25.45800000  *
   187       H         -5.82400000  *  28.09700000  *  23.25100000  *
   188       H         -7.78900000  *  29.80400000  *  24.87700000  *
   189       H         -7.07300000  *  30.30900000  *  23.32200000  *
   190       H         -9.06000000  *  28.06900000  *  23.83200000  *
   191       H         -9.87700000  *  30.42100000  *  23.53200000  *
   192       H         -9.02200000  *  30.49700000  *  21.97300000  *
   193       H        -10.37700000  *  29.36400000  *  22.19000000  *
   194       H         -7.34600000  *  27.16900000  *  22.36100000  *
   195       H         -8.87900000  *  27.43900000  *  21.49800000  *
   196       H         -7.52400000  *  28.57200000  *  21.28100000  *
   197       H         -5.53700000  *  28.69800000  *  26.77400000  *
   198       H         -3.48400000  *  30.68800000  *  26.21700000  *
   199       H         -2.55400000  *  27.90100000  *  26.31400000  *
   200       H         -4.91100000  *  30.85100000  *  28.28000000  *
   201       H         -3.17400000  *  30.77800000  *  28.68300000  *
   202       H         -3.88600000  *  28.27900000  *  30.86700000  *
   203       H         -6.25200000  *  10.61200000  *  15.14000000  *
   204       H          8.22800000  *  17.15300000  *  31.38800000  *
   205       H          7.03300000  *  17.66800000  *  32.15900000  *
   206       H          1.72600000  *   9.95300000  *  24.35500000  *
   207       H          3.79100000  *  13.16200000  *  25.60700000  *
   208       H         -0.32500000  *  11.53600000  *  20.24500000  *
   209       H          1.33300000  *  15.11900000  *  21.21100000  *
   210       H         -1.30200000  *  13.36800000  *  16.75100000  *



          CARTESIAN COORDINATES 

    NO.       ATOM           X           Y           Z

     1         N          0.0000      0.0000      0.0000
     2         C          1.4630      0.0000      0.0000
     3         C          2.0600      1.4240      0.0000
     4         O          3.2520      1.5880      0.2040
     5         C          2.0240     -0.7960     -1.1780
     6         C          2.4450     -2.1590     -0.7310
     7         O          2.5960     -2.5450      0.4080
     8         O          2.6800     -2.9600     -1.7810
     9         N          1.1960      2.4760     -0.1170
    10         C          1.6850      3.8460     -0.1260
    11         C          1.3050      4.5620      1.1800
    12         O          2.0230      5.4740      1.5790
    13         C          1.1910      4.6430     -1.3450
    14         C         -0.3110      4.8830     -1.4380
    15         C         -1.0770      3.7110     -1.9690
    16         O         -2.3110      4.0870     -2.3470
    17         O         -0.7390      2.5520     -2.0650
    18         N          0.2040      4.1920      1.8920
    19         C         -0.1850      4.9490      3.0830
    20         C         -0.6820      3.9800      4.1670
    21         O         -1.4050      3.0320      3.9280
    22         C         -1.3700      5.8910      2.7740
    23         C         -0.8950      7.2170      2.2030
    24         S         -0.2600      8.3150      3.5270
    25         C         -1.4780      9.6510      3.5650
    26         N         -0.3530      4.3280      5.4520
    27         C         -0.8060      3.5090      6.5750
    28         C         -1.6600      4.4370      7.4620
    29         O         -1.1410      5.3510      8.0960
    30         C          0.3890      3.0000      7.3960
    31         C         -0.1020      2.0720      8.5050
    32         C          1.0570      1.4640      9.3110
    33         N          2.1210      2.3990      9.7100
    34         C          1.8200      3.5180     10.5140
    35         N          0.6890      3.4440     11.3480
    36         N          2.7230      4.4600     10.5620
    37         N         -3.0010      4.2530      7.5690
    38         C         -3.8330      5.2730      8.2210
    39         C         -3.8790      5.1260      9.7520
    40         O         -3.7040      4.0840     10.3560
    41         C         -3.8060      3.3020      6.7790
    42         C         -5.2600      5.0680      7.6720
    43         C         -5.2750      3.6580      7.0690
    44         N         -4.2590      6.2800     10.3890
    45         C         -4.4860      6.3390     11.8360
    46         C         -5.4960      7.4830     12.0570
    47         O         -5.4810      8.4960     11.3740
    48         C         -3.1800      6.6650     12.5690
    49         S         -3.4190      6.8960     14.3670
    50         N         -6.4480      7.2890     13.0180
    51         C         -7.4090      8.3510     13.3130
    52         C         -6.8110      9.2020     14.4570
    53         O         -6.6530      8.7600     15.5860
    54         C         -8.7490      7.7420     13.7740
    55         C         -9.6650      7.5160     12.6380
    56         C        -10.0890      6.3070     12.1060
    57         N        -11.0150      6.5370     11.0820
    58         C        -10.3510      8.5580     11.9220
    59         C        -11.2070      7.9120     10.9720
    60         C        -10.3350      9.9530     12.0020
    61         C        -12.0610      8.6450     10.1370
    62         C        -11.1830     10.6700     11.1810
    63         C        -12.0440     10.0200     10.2710
    64         N         -5.6510     21.7310     21.9910
    65         C         -4.9600     22.5870     22.9450
    66         C         -5.9630     23.5140     23.6490
    67         O         -6.9820     23.9340     23.1360
    68         C         -3.9460     23.4970     22.2150
    69         C         -2.6800     22.7460     21.9470
    70         C         -2.5540     21.9590     20.8020
    71         C         -1.6210     22.8350     22.8530
    72         C         -1.3550     21.2990     20.5440
    73         C         -0.4300     22.1610     22.5980
    74         C         -0.2930     21.4010     21.4390
    75         N         -5.6330     23.8540     24.9460
    76         C         -6.3370     24.9660     25.5780
    77         C         -5.7580     26.2660     24.9880
    78         O         -4.6170     26.3260     24.5560
    79         C         -6.1150     24.9600     27.1030
    80         C         -7.4200     25.1490     27.8730
    81         C         -7.9640     26.5430     27.6980
    82         O         -8.6970     26.8510     26.7530
    83         N         -7.5930     27.5070     28.5810
    84         N         -6.5790     27.3610     24.9500
    85         C         -6.1980     28.5380     24.1750
    86         C         -5.1050     29.3700     24.8590
    87         O         -4.4660     30.1850     24.2110
    88         C         -7.3980     29.4580     23.9200
    89         C         -8.5500     28.7630     23.1640
    90         C         -9.5270     29.8390     22.6800
    91         C         -8.0380     27.9260     21.9920
    92         N         -4.8830     29.2220     26.2090
    93         C         -3.7030     29.8190     26.8370
    94         C         -2.4990     28.8450     26.8560
    95         O         -1.4830     29.1330     27.4780
    96         C         -4.0210     30.2220     28.2820
    97         C         -4.2710     29.0320     29.1420
    98         O         -4.8910     28.0330     28.8060
    99         O         -3.7100     29.1170     30.3490
   100         O         -6.5780     10.1920     14.2930
   101         S          2.1370     12.5340     23.5040
   102         P          0.4020     13.8680     18.9010
   103         O          7.2710     17.1530     31.3880
   104         O          2.0430     10.9960     24.3330
   105         O          2.9900     13.2180     24.8700
   106         O          3.5040     12.8890     22.4720
   107         O          1.2840     11.8490     22.1380
   108         O          0.2370     12.2440     19.6360
   109         O          1.2640     14.4410     20.3610
   110         O         -0.4610     13.2940     17.4410
   111         O         -0.8670     15.1030     19.1650
   112         H         -0.3290     -0.4180      0.8590
   113         H         -0.3290      0.9530     -0.0670
   114         H          1.7050     -0.5000      0.9380
   115         H          2.8890     -0.2730     -1.5850
   116         H          1.2550     -0.8950     -1.9440
   117         H          2.9780     -3.8610     -1.4640
   118         H          0.2040      2.3080     -0.1980
   119         H          2.7660      3.7340     -0.2030
   120         H          1.5160      4.0840     -2.2230
   121         H          1.7030      5.6040     -1.3060
   122         H         -0.4680      5.7380     -2.0960
   123         H         -0.6700      5.1160     -0.4350
   124         H         -2.8220      3.2960     -2.6830
   125         H         -0.3440      3.3970      1.5970
   126         H          0.7130      5.4940      3.3740
   127         H         -1.9170      6.0780      3.6980
   128         H         -2.0220      5.4050      2.0480
   129         H         -0.0950      7.0290      1.4860
   130         H         -1.7310      7.7090      1.7060
   131         H         -1.1980     10.3760      4.3290
   132         H         -1.5100     10.1420      2.5920
   133         H         -2.4610      9.2400      3.7960
   134         H          0.2040      5.1530      5.6240
   135         H         -1.3530      2.6560      6.1730
   136         H          0.9090      3.8460      7.8460
   137         H          1.0690      2.4480      6.7470
   138         H         -0.7340      2.6400      9.1880
   139         H         -0.6730      1.2580      8.0590
   140         H          0.6620      1.0350     10.2320
   141         H          1.5360      0.6880      8.7140
   142         H          3.1100      2.1400      9.3320
   143         H          0.5280      4.1610     12.0550
   144         H          0.0290      2.6720     11.2460
   145         H          2.6360      5.2150     11.2420
   146         H         -3.3820      6.2380      7.9910
   147         H         -3.6230      2.2720      7.0860
   148         H         -3.6190      3.4100      5.7110
   149         H         -5.4940      5.7900      6.8900
   150         H         -6.0050      5.1230      8.4650
   151         H         -5.7160      2.9690      7.7900
   152         H         -5.8690      3.6690      6.1550
   153         H         -4.3930      7.1290      9.8590
   154         H         -4.8450      5.3660     12.1730
   155         H         -2.4760      5.8450     12.4240
   156         H         -2.7650      7.5870     12.1620
   157         H         -2.6450      7.1110     14.9460
   158         H         -6.4860      6.4150     13.5220
   159         H         -7.5630      8.9230     12.3990
   160         H         -9.2190      8.4290     14.4780
   161         H         -8.5480      6.7890     14.2630
   162         H         -9.6960      5.3710     12.5010
   163         H        -11.5140      5.9060     10.4700
   164         H         -9.6740     10.4770     12.6930
   165         H        -12.7200      8.1770      9.4060
   166         H        -11.1950     11.7590     11.2280
   167         H        -12.7090     10.6350      9.6650
   168         H         -5.4720     20.7650     22.2260
   169         H         -6.6420     21.9190     22.0390
   170         H         -4.4790     21.8930     23.6350
   171         H         -3.7210     24.3610     22.8400
   172         H         -4.3720     23.8250     21.2670
   173         H         -3.3910     21.8600     20.1090
   174         H         -1.7270     23.4310     23.7590
   175         H         -1.2500     20.7020     19.6390
   176         H          0.3960     22.2280     23.3060
   177         H          0.6450     20.8860     21.2320
   178         H         -4.9190     23.3360     25.4380
   179         H         -7.3980     24.8390     25.3630
   180         H         -5.4330     25.7730     27.3550
   181         H         -5.6730     24.0040     27.3830
   182         H         -7.2320     24.9720     28.9320
   183         H         -8.1540     24.4330     27.5010
   184         H         -7.1250     28.2490     28.0800
   185         H         -8.4170     27.8670     29.0400
   186         H         -7.4510     27.3560     25.4580
   187         H         -5.8240     28.0970     23.2510
   188         H         -7.7890     29.8040     24.8770
   189         H         -7.0730     30.3090     23.3220
   190         H         -9.0600     28.0690     23.8320
   191         H         -9.8770     30.4210     23.5320
   192         H         -9.0220     30.4970     21.9730
   193         H        -10.3770     29.3640     22.1900
   194         H         -7.3460     27.1690     22.3610
   195         H         -8.8790     27.4390     21.4980
   196         H         -7.5240     28.5720     21.2810
   197         H         -5.5370     28.6980     26.7740
   198         H         -3.4840     30.6880     26.2170
   199         H         -2.5540     27.9010     26.3140
   200         H         -4.9110     30.8510     28.2800
   201         H         -3.1740     30.7780     28.6830
   202         H         -3.8860     28.2790     30.8670
   203         H         -6.2520     10.6120     15.1400
   204         H          8.2280     17.1530     31.3880
   205         H          7.0330     17.6680     32.1590
   206         H          1.7260      9.9530     24.3550
   207         H          3.7910     13.1620     25.6070
   208         H         -0.3250     11.5360     20.2450
   209         H          1.3330     15.1190     21.2110
   210         H         -1.3020     13.3680     16.7510

 General Reference for PM7:
 "Optimization of Parameters for Semiempirical Methods VI: More Modifications to the 
 NDDO Approximations and Re-optimization of Parameters", J. J. P. Stewart, J. Mol. Mod., 1:32, 19 (2013)
 https://link.springer.com/article/10.1007/s00894-012-1667-x

           Empirical Formula: C63 H99 N16 O28 S3 P  =   210 atoms


                RESIDUE SEQUENCE IN PROTEIN Chain: B

             1     2     3     4     5     6     7     8     9    10
       30                                                         ASP   
       40   GLU   MET   ARG   PRO   CYS   TRP   

                RESIDUE SEQUENCE IN PROTEIN FRAGMENT: 2 Chain: B

             1     2     3     4     5     6     7     8     9    10
       40                                                         PHE   
       50   GLN   LEU   ASP   

                RESIDUE SEQUENCE IN PROTEIN Chain: B

       30           D EMRPCW

                RESIDUE SEQUENCE IN PROTEIN FRAGMENT: 2 Chain: B

       40           F QLD


           GEOMETRY AFTER RE-SEQUENCING


*HEADER  data-set: moieties
*REMARK  MOPAC 2012, Version: 15.338W Date: Dec 04 2015 12:40
*REMARK   3 PO4 = Phosphate res:   61
 start_res=(40, 50, 60) chains=(B) HTML
 Test to show that PDB files are correctly manipulated

  N(ATOM      1  N   ASP B  40)   0.00000000 +1   0.00000000 +1   0.00000000 +1
  C(ATOM      2  CA  ASP B  40)   1.46300000 +1   0.00000000 +1   0.00000000 +1
  C(ATOM      3  C   ASP B  40)   2.06000000 +1   1.42400000 +1   0.00000000 +1
  O(ATOM      4  O   ASP B  40)   3.25200000 +1   1.58800000 +1   0.20400000 +1
  C(ATOM      5  CB  ASP B  40)   2.02400000 +1  -0.79600000 +1  -1.17800000 +1
  C(ATOM      6  CG  ASP B  40)   2.44500000 +1  -2.15900000 +1  -0.73100000 +1
  O(ATOM      7  OD1 ASP B  40)   2.59600000 +1  -2.54500000 +1   0.40800000 +1
  O(ATOM      8  OD2 ASP B  40)   2.68000000 +1  -2.96000000 +1  -1.78100000 +1
  H(ATOM      9 1H   ASP B  40)  -0.32900000 +1  -0.41800000 +1   0.85900000 +1
  H(ATOM     10 2H   ASP B  40)  -0.32900000 +1   0.95300000 +1  -0.06700000 +1
  H(ATOM     11  HA  ASP B  40)   1.70500000 +1  -0.50000000 +1   0.93800000 +1
  H(ATOM     12 1HB  ASP B  40)   2.88900000 +1  -0.27300000 +1  -1.58500000 +1
  H(ATOM     13 2HB  ASP B  40)   1.25500000 +1  -0.89500000 +1  -1.94400000 +1
  H(ATOM     14  HD2 ASP B  40)   2.97800000 +1  -3.86100000 +1  -1.46400000 +1
  N(ATOM     15  N   GLU B  41)   1.19600000 +1   2.47600000 +1  -0.11700000 +1
  C(ATOM     16  CA  GLU B  41)   1.68500000 +1   3.84600000 +1  -0.12600000 +1
  C(ATOM     17  C   GLU B  41)   1.30500000 +1   4.56200000 +1   1.18000000 +1
  O(ATOM     18  O   GLU B  41)   2.02300000 +1   5.47400000 +1   1.57900000 +1
  C(ATOM     19  CB  GLU B  41)   1.19100000 +1   4.64300000 +1  -1.34500000 +1
  C(ATOM     20  CG  GLU B  41)  -0.31100000 +1   4.88300000 +1  -1.43800000 +1
  C(ATOM     21  CD  GLU B  41)  -1.07700000 +1   3.71100000 +1  -1.96900000 +1
  O(ATOM     22  OE1 GLU B  41)  -2.31100000 +1   4.08700000 +1  -2.34700000 +1
  O(ATOM     23  OE2 GLU B  41)  -0.73900000 +1   2.55200000 +1  -2.06500000 +1
  H(ATOM     24  H   GLU B  41)   0.20400000 +1   2.30800000 +1  -0.19800000 +1
  H(ATOM     25  HA  GLU B  41)   2.76600000 +1   3.73400000 +1  -0.20300000 +1
  H(ATOM     26 1HB  GLU B  41)   1.51600000 +1   4.08400000 +1  -2.22300000 +1
  H(ATOM     27 2HB  GLU B  41)   1.70300000 +1   5.60400000 +1  -1.30600000 +1
  H(ATOM     28 1HG  GLU B  41)  -0.46800000 +1   5.73800000 +1  -2.09600000 +1
  H(ATOM     29 2HG  GLU B  41)  -0.67000000 +1   5.11600000 +1  -0.43500000 +1
  H(ATOM     30  HE1 GLU B  41)  -2.82200000 +1   3.29600000 +1  -2.68300000 +1
  N(ATOM     31  N   MET B  42)   0.20400000 +1   4.19200000 +1   1.89200000 +1
  C(ATOM     32  CA  MET B  42)  -0.18500000 +1   4.94900000 +1   3.08300000 +1
  C(ATOM     33  C   MET B  42)  -0.68200000 +1   3.98000000 +1   4.16700000 +1
  O(ATOM     34  O   MET B  42)  -1.40500000 +1   3.03200000 +1   3.92800000 +1
  C(ATOM     35  CB  MET B  42)  -1.37000000 +1   5.89100000 +1   2.77400000 +1
  C(ATOM     36  CG  MET B  42)  -0.89500000 +1   7.21700000 +1   2.20300000 +1
  S(ATOM     37  SD  MET B  42)  -0.26000000 +1   8.31500000 +1   3.52700000 +1
  C(ATOM     38  CE  MET B  42)  -1.47800000 +1   9.65100000 +1   3.56500000 +1
  H(ATOM     39  H   MET B  42)  -0.34400000 +1   3.39700000 +1   1.59700000 +1
  H(ATOM     40  HA  MET B  42)   0.71300000 +1   5.49400000 +1   3.37400000 +1
  H(ATOM     41 1HB  MET B  42)  -1.91700000 +1   6.07800000 +1   3.69800000 +1
  H(ATOM     42 2HB  MET B  42)  -2.02200000 +1   5.40500000 +1   2.04800000 +1
  H(ATOM     43 1HG  MET B  42)  -0.09500000 +1   7.02900000 +1   1.48600000 +1
  H(ATOM     44 2HG  MET B  42)  -1.73100000 +1   7.70900000 +1   1.70600000 +1
  H(ATOM     45 1HE  MET B  42)  -1.19800000 +1  10.37600000 +1   4.32900000 +1
  H(ATOM     46 2HE  MET B  42)  -1.51000000 +1  10.14200000 +1   2.59200000 +1
  H(ATOM     47 3HE  MET B  42)  -2.46100000 +1   9.24000000 +1   3.79600000 +1
  N(ATOM     48  N   ARG B  43)  -0.35300000 +1   4.32800000 +1   5.45200000 +1
  C(ATOM     49  CA  ARG B  43)  -0.80600000 +1   3.50900000 +1   6.57500000 +1
  C(ATOM     50  C   ARG B  43)  -1.66000000 +1   4.43700000 +1   7.46200000 +1
  O(ATOM     51  O   ARG B  43)  -1.14100000 +1   5.35100000 +1   8.09600000 +1
  C(ATOM     52  CB  ARG B  43)   0.38900000 +1   3.00000000 +1   7.39600000 +1
  C(ATOM     53  CG  ARG B  43)  -0.10200000 +1   2.07200000 +1   8.50500000 +1
  C(ATOM     54  CD  ARG B  43)   1.05700000 +1   1.46400000 +1   9.31100000 +1
  N(ATOM     55  NE  ARG B  43)   2.12100000 +1   2.39900000 +1   9.71000000 +1
  C(ATOM     56  CZ  ARG B  43)   1.82000000 +1   3.51800000 +1  10.51400000 +1
  N(ATOM     57  NH1 ARG B  43)   0.68900000 +1   3.44400000 +1  11.34800000 +1
  N(ATOM     58  NH2 ARG B  43)   2.72300000 +1   4.46000000 +1  10.56200000 +1
  H(ATOM     59  H   ARG B  43)   0.20400000 +1   5.15300000 +1   5.62400000 +1
  H(ATOM     60  HA  ARG B  43)  -1.35300000 +1   2.65600000 +1   6.17300000 +1
  H(ATOM     61 1HB  ARG B  43)   0.90900000 +1   3.84600000 +1   7.84600000 +1
  H(ATOM     62 2HB  ARG B  43)   1.06900000 +1   2.44800000 +1   6.74700000 +1
  H(ATOM     63 1HG  ARG B  43)  -0.73400000 +1   2.64000000 +1   9.18800000 +1
  H(ATOM     64 2HG  ARG B  43)  -0.67300000 +1   1.25800000 +1   8.05900000 +1
  H(ATOM     65 1HD  ARG B  43)   0.66200000 +1   1.03500000 +1  10.23200000 +1
  H(ATOM     66 2HD  ARG B  43)   1.53600000 +1   0.68800000 +1   8.71400000 +1
  H(ATOM     67  HE  ARG B  43)   3.11000000 +1   2.14000000 +1   9.33200000 +1
  H(ATOM     68 1HH1 ARG B  43)   0.52800000 +1   4.16100000 +1  12.05500000 +1
  H(ATOM     69 2HH1 ARG B  43)   0.02900000 +1   2.67200000 +1  11.24600000 +1
  H(ATOM     70  HH2 ARG B  43)   2.63600000 +1   5.21500000 +1  11.24200000 +1
  N(ATOM     71  N   PRO B  44)  -3.00100000 +1   4.25300000 +1   7.56900000 +1
  C(ATOM     72  CA  PRO B  44)  -3.83300000 +1   5.27300000 +1   8.22100000 +1
  C(ATOM     73  C   PRO B  44)  -3.87900000 +1   5.12600000 +1   9.75200000 +1
  O(ATOM     74  O   PRO B  44)  -3.70400000 +1   4.08400000 +1  10.35600000 +1
  C(ATOM     75  CB  PRO B  44)  -5.26000000 +1   5.06800000 +1   7.67200000 +1
  C(ATOM     76  CG  PRO B  44)  -5.27500000 +1   3.65800000 +1   7.06900000 +1
  C(ATOM     77  CD  PRO B  44)  -3.80600000 +1   3.30200000 +1   6.77900000 +1
  H(ATOM     78  HA  PRO B  44)  -3.38200000 +1   6.23800000 +1   7.99100000 +1
  H(ATOM     79 1HB  PRO B  44)  -5.49400000 +1   5.79000000 +1   6.89000000 +1
  H(ATOM     80 2HB  PRO B  44)  -6.00500000 +1   5.12300000 +1   8.46500000 +1
  H(ATOM     81 1HG  PRO B  44)  -5.71600000 +1   2.96900000 +1   7.79000000 +1
  H(ATOM     82 2HG  PRO B  44)  -5.86900000 +1   3.66900000 +1   6.15500000 +1
  H(ATOM     83 1HD  PRO B  44)  -3.62300000 +1   2.27200000 +1   7.08600000 +1
  H(ATOM     84 2HD  PRO B  44)  -3.61900000 +1   3.41000000 +1   5.71100000 +1
  N(ATOM     85  N   CYS B  45)  -4.25900000 +1   6.28000000 +1  10.38900000 +1
  C(ATOM     86  CA  CYS B  45)  -4.48600000 +1   6.33900000 +1  11.83600000 +1
  C(ATOM     87  C   CYS B  45)  -5.49600000 +1   7.48300000 +1  12.05700000 +1
  O(ATOM     88  O   CYS B  45)  -5.48100000 +1   8.49600000 +1  11.37400000 +1
  C(ATOM     89  CB  CYS B  45)  -3.18000000 +1   6.66500000 +1  12.56900000 +1
  S(ATOM     90  SG  CYS B  45)  -3.41900000 +1   6.89600000 +1  14.36700000 +1
  H(ATOM     91  H   CYS B  45)  -4.39300000 +1   7.12900000 +1   9.85900000 +1
  H(ATOM     92  HA  CYS B  45)  -4.84500000 +1   5.36600000 +1  12.17300000 +1
  H(ATOM     93 1HB  CYS B  45)  -2.47600000 +1   5.84500000 +1  12.42400000 +1
  H(ATOM     94 2HB  CYS B  45)  -2.76500000 +1   7.58700000 +1  12.16200000 +1
  H(ATOM     95  HG  CYS B  45)  -2.64500000 +1   7.11100000 +1  14.94600000 +1
  N(ATOM     96  N   TRP B  46)  -6.44800000 +1   7.28900000 +1  13.01800000 +1
  C(ATOM     97  CA  TRP B  46)  -7.40900000 +1   8.35100000 +1  13.31300000 +1
  C(ATOM     98  C   TRP B  46)  -6.81100000 +1   9.20200000 +1  14.45700000 +1
  O(ATOM     99  O   TRP B  46)  -6.65300000 +1   8.76000000 +1  15.58600000 +1
  C(ATOM    100  CB  TRP B  46)  -8.74900000 +1   7.74200000 +1  13.77400000 +1
  C(ATOM    101  CG  TRP B  46)  -9.66500000 +1   7.51600000 +1  12.63800000 +1
  C(ATOM    102  CD1 TRP B  46) -10.08900000 +1   6.30700000 +1  12.10600000 +1
  N(ATOM    103  NE1 TRP B  46) -11.01500000 +1   6.53700000 +1  11.08200000 +1
  C(ATOM    104  CD2 TRP B  46) -10.35100000 +1   8.55800000 +1  11.92200000 +1
  C(ATOM    105  CE2 TRP B  46) -11.20700000 +1   7.91200000 +1  10.97200000 +1
  C(ATOM    106  CE3 TRP B  46) -10.33500000 +1   9.95300000 +1  12.00200000 +1
  C(ATOM    107  CZ2 TRP B  46) -12.06100000 +1   8.64500000 +1  10.13700000 +1
  C(ATOM    108  CZ3 TRP B  46) -11.18300000 +1  10.67000000 +1  11.18100000 +1
  C(ATOM    109  CH2 TRP B  46) -12.04400000 +1  10.02000000 +1  10.27100000 +1
  O(ATOM    110  OXT TRP B  46)  -6.57800000 +1  10.19200000 +1  14.29300000 +1
  H(ATOM    111  H   TRP B  46)  -6.48600000 +1   6.41500000 +1  13.52200000 +1
  H(ATOM    112  HA  TRP B  46)  -7.56300000 +1   8.92300000 +1  12.39900000 +1
  H(ATOM    113 1HB  TRP B  46)  -9.21900000 +1   8.42900000 +1  14.47800000 +1
  H(ATOM    114 2HB  TRP B  46)  -8.54800000 +1   6.78900000 +1  14.26300000 +1
  H(ATOM    115  HXT TRP B  46)  -6.25200000 +1  10.61200000 +1  15.14000000 +1
  H(ATOM    116  HD1 TRP B  46)  -9.69600000 +1   5.37100000 +1  12.50100000 +1
  H(ATOM    117  HE1 TRP B  46) -11.51400000 +1   5.90600000 +1  10.47000000 +1
  H(ATOM    118  HE3 TRP B  46)  -9.67400000 +1  10.47700000 +1  12.69300000 +1
  H(ATOM    119  HZ2 TRP B  46) -12.72000000 +1   8.17700000 +1   9.40600000 +1
  H(ATOM    120  HZ3 TRP B  46) -11.19500000 +1  11.75900000 +1  11.22800000 +1
  H(ATOM    121  HH2 TRP B  46) -12.70900000 +1  10.63500000 +1   9.66500000 +1
  N(ATOM    123  N   PHE B  50)  -5.65100000 +1  21.73100000 +1  21.99100000 +1
  C(ATOM    124  CA  PHE B  50)  -4.96000000 +1  22.58700000 +1  22.94500000 +1
  C(ATOM    125  C   PHE B  50)  -5.96300000 +1  23.51400000 +1  23.64900000 +1
  O(ATOM    126  O   PHE B  50)  -6.98200000 +1  23.93400000 +1  23.13600000 +1
  C(ATOM    127  CB  PHE B  50)  -3.94600000 +1  23.49700000 +1  22.21500000 +1
  C(ATOM    128  CG  PHE B  50)  -2.68000000 +1  22.74600000 +1  21.94700000 +1
  C(ATOM    129  CD1 PHE B  50)  -2.55400000 +1  21.95900000 +1  20.80200000 +1
  C(ATOM    130  CD2 PHE B  50)  -1.62100000 +1  22.83500000 +1  22.85300000 +1
  C(ATOM    131  CE1 PHE B  50)  -1.35500000 +1  21.29900000 +1  20.54400000 +1
  C(ATOM    132  CE2 PHE B  50)  -0.43000000 +1  22.16100000 +1  22.59800000 +1
  C(ATOM    133  CZ  PHE B  50)  -0.29300000 +1  21.40100000 +1  21.43900000 +1
  H(ATOM    134 1H   PHE B  50)  -5.47200000 +1  20.76500000 +1  22.22600000 +1
  H(ATOM    135 2H   PHE B  50)  -6.64200000 +1  21.91900000 +1  22.03900000 +1
  H(ATOM    136  HA  PHE B  50)  -4.47900000 +1  21.89300000 +1  23.63500000 +1
  H(ATOM    137 1HB  PHE B  50)  -3.72100000 +1  24.36100000 +1  22.84000000 +1
  H(ATOM    138 2HB  PHE B  50)  -4.37200000 +1  23.82500000 +1  21.26700000 +1
  H(ATOM    139  HD1 PHE B  50)  -3.39100000 +1  21.86000000 +1  20.10900000 +1
  H(ATOM    140  HD2 PHE B  50)  -1.72700000 +1  23.43100000 +1  23.75900000 +1
  H(ATOM    141  HE1 PHE B  50)  -1.25000000 +1  20.70200000 +1  19.63900000 +1
  H(ATOM    142  HE2 PHE B  50)   0.39600000 +1  22.22800000 +1  23.30600000 +1
  H(ATOM    143  HZ  PHE B  50)   0.64500000 +1  20.88600000 +1  21.23200000 +1
  N(ATOM    144  N   GLN B  51)  -5.63300000 +1  23.85400000 +1  24.94600000 +1
  C(ATOM    145  CA  GLN B  51)  -6.33700000 +1  24.96600000 +1  25.57800000 +1
  C(ATOM    146  C   GLN B  51)  -5.75800000 +1  26.26600000 +1  24.98800000 +1
  O(ATOM    147  O   GLN B  51)  -4.61700000 +1  26.32600000 +1  24.55600000 +1
  C(ATOM    148  CB  GLN B  51)  -6.11500000 +1  24.96000000 +1  27.10300000 +1
  C(ATOM    149  CG  GLN B  51)  -7.42000000 +1  25.14900000 +1  27.87300000 +1
  C(ATOM    150  CD  GLN B  51)  -7.96400000 +1  26.54300000 +1  27.69800000 +1
  O(ATOM    151  OE1 GLN B  51)  -8.69700000 +1  26.85100000 +1  26.75300000 +1
  N(ATOM    152  NE2 GLN B  51)  -7.59300000 +1  27.50700000 +1  28.58100000 +1
  H(ATOM    153  H   GLN B  51)  -4.91900000 +1  23.33600000 +1  25.43800000 +1
  H(ATOM    154  HA  GLN B  51)  -7.39800000 +1  24.83900000 +1  25.36300000 +1
  H(ATOM    155 1HB  GLN B  51)  -5.43300000 +1  25.77300000 +1  27.35500000 +1
  H(ATOM    156 2HB  GLN B  51)  -5.67300000 +1  24.00400000 +1  27.38300000 +1
  H(ATOM    157 1HG  GLN B  51)  -7.23200000 +1  24.97200000 +1  28.93200000 +1
  H(ATOM    158 2HG  GLN B  51)  -8.15400000 +1  24.43300000 +1  27.50100000 +1
  H(ATOM    159 1HE2 GLN B  51)  -7.12500000 +1  28.24900000 +1  28.08000000 +1
  H(ATOM    160 2HE2 GLN B  51)  -8.41700000 +1  27.86700000 +1  29.04000000 +1
  N(ATOM    161  N   LEU B  52)  -6.57900000 +1  27.36100000 +1  24.95000000 +1
  C(ATOM    162  CA  LEU B  52)  -6.19800000 +1  28.53800000 +1  24.17500000 +1
  C(ATOM    163  C   LEU B  52)  -5.10500000 +1  29.37000000 +1  24.85900000 +1
  O(ATOM    164  O   LEU B  52)  -4.46600000 +1  30.18500000 +1  24.21100000 +1
  C(ATOM    165  CB  LEU B  52)  -7.39800000 +1  29.45800000 +1  23.92000000 +1
  C(ATOM    166  CG  LEU B  52)  -8.55000000 +1  28.76300000 +1  23.16400000 +1
  C(ATOM    167  CD1 LEU B  52)  -9.52700000 +1  29.83900000 +1  22.68000000 +1
  C(ATOM    168  CD2 LEU B  52)  -8.03800000 +1  27.92600000 +1  21.99200000 +1
  H(ATOM    169  H   LEU B  52)  -7.45100000 +1  27.35600000 +1  25.45800000 +1
  H(ATOM    170  HA  LEU B  52)  -5.82400000 +1  28.09700000 +1  23.25100000 +1
  H(ATOM    171 1HB  LEU B  52)  -7.78900000 +1  29.80400000 +1  24.87700000 +1
  H(ATOM    172 2HB  LEU B  52)  -7.07300000 +1  30.30900000 +1  23.32200000 +1
  H(ATOM    173  HG  LEU B  52)  -9.06000000 +1  28.06900000 +1  23.83200000 +1
  H(ATOM    174 1HD1 LEU B  52)  -9.87700000 +1  30.42100000 +1  23.53200000 +1
  H(ATOM    175 2HD1 LEU B  52)  -9.02200000 +1  30.49700000 +1  21.97300000 +1
  H(ATOM    176 3HD1 LEU B  52) -10.37700000 +1  29.36400000 +1  22.19000000 +1
  H(ATOM    177 1HD2 LEU B  52)  -7.34600000 +1  27.16900000 +1  22.36100000 +1
  H(ATOM    178 2HD2 LEU B  52)  -8.87900000 +1  27.43900000 +1  21.49800000 +1
  H(ATOM    179 3HD2 LEU B  52)  -7.52400000 +1  28.57200000 +1  21.28100000 +1
  N(ATOM    180  N   ASP B  53)  -4.88300000 +1  29.22200000 +1  26.20900000 +1
  C(ATOM    181  CA  ASP B  53)  -3.70300000 +1  29.81900000 +1  26.83700000 +1
  C(ATOM    182  C   ASP B  53)  -2.49900000 +1  28.84500000 +1  26.85600000 +1
  O(ATOM    183  O   ASP B  53)  -1.48300000 +1  29.13300000 +1  27.47800000 +1
  C(ATOM    184  CB  ASP B  53)  -4.02100000 +1  30.22200000 +1  28.28200000 +1
  C(ATOM    185  CG  ASP B  53)  -4.27100000 +1  29.03200000 +1  29.14200000 +1
  O(ATOM    186  OD1 ASP B  53)  -4.89100000 +1  28.03300000 +1  28.80600000 +1
  O(ATOM    187  OD2 ASP B  53)  -3.71000000 +1  29.11700000 +1  30.34900000 +1
  H(ATOM    188  H   ASP B  53)  -5.53700000 +1  28.69800000 +1  26.77400000 +1
  H(ATOM    189  HA  ASP B  53)  -3.48400000 +1  30.68800000 +1  26.21700000 +1
  H(ATOM    190  HXT ASP B  53)  -2.55400000 +1  27.90100000 +1  26.31400000 +1
  H(ATOM    191 1HB  ASP B  53)  -4.91100000 +1  30.85100000 +1  28.28000000 +1
  H(ATOM    192 2HB  ASP B  53)  -3.17400000 +1  30.77800000 +1  28.68300000 +1
  H(ATOM    193  HD2 ASP B  53)  -3.88600000 +1  28.27900000 +1  30.86700000 +1
  S(HETATM  195  S   SO4 B  60)   2.13700000 +1  12.53400000 +1  23.50400000 +1
  O(HETATM  196  O1  SO4 B  60)   2.04300000 +1  10.99600000 +1  24.33300000 +1
  O(HETATM  197  O2  SO4 B  60)   1.28400000 +1  11.84900000 +1  22.13800000 +1
  O(HETATM  198  O3  SO4 B  60)   3.50400000 +1  12.88900000 +1  22.47200000 +1
  O(HETATM  199  O4  SO4 B  60)   2.99000000 +1  13.21800000 +1  24.87000000 +1
  H(HETATM  200  H1  SO4 B  60)   1.72600000 +1   9.95300000 +1  24.35500000 +1
  H(HETATM  201  H4  SO4 B  60)   3.79100000 +1  13.16200000 +1  25.60700000 +1
  P(HETATM  203  P   PO4 B  61)   0.40200000 +1  13.86800000 +1  18.90100000 +1
  O(HETATM  204  O1  PO4 B  61)   0.23700000 +1  12.24400000 +1  19.63600000 +1
  O(HETATM  205  O2  PO4 B  61)  -0.86700000 +1  15.10300000 +1  19.16500000 +1
  O(HETATM  206  O3  PO4 B  61)  -0.46100000 +1  13.29400000 +1  17.44100000 +1
  O(HETATM  207  O4  PO4 B  61)   1.26400000 +1  14.44100000 +1  20.36100000 +1
  H(HETATM  208  H1  PO4 B  61)  -0.32500000 +1  11.53600000 +1  20.24500000 +1
  H(HETATM  209  H3  PO4 B  61)  -1.30200000 +1  13.36800000 +1  16.75100000 +1
  H(HETATM  210  H4  PO4 B  61)   1.33300000 +1  15.11900000 +1  21.21100000 +1
  O(HETATM  212  O   HOH B  62)   7.27100000 +1  17.15300000 +1  31.38800000 +1
  H(HETATM  213 1H   HOH B  62)   8.22800000 +1  17.15300000 +1  31.38800000 +1
  H(HETATM  214 2H   HOH B  62)   7.03300000 +1  17.66800000 +1  32.15900000 +1

HEADER  data-set: moieties
REMARK  MOPAC 2012, Version: 15.338W Date: Dec 04 2015 12:40
REMARK   3 PO4 = Phosphate res:   61
ATOM      1  N   ASP B  40       0.000   0.000   0.000  1.0   0.00      PROT N 
ATOM      2  CA  ASP B  40       1.463   0.000   0.000  1.0   0.00      PROT C 
ATOM      3  C   ASP B  40       2.060   1.424   0.000  1.0   0.00      PROT C 
ATOM      4  O   ASP B  40       3.252   1.588   0.204  1.0   0.00      PROT O 
ATOM      5  CB  ASP B  40       2.024  -0.796  -1.178  1.0   0.00      PROT C 
ATOM      6  CG  ASP B  40       2.445  -2.159  -0.731  1.0   0.00      PROT C 
ATOM      7  OD1 ASP B  40       2.596  -2.545   0.408  1.0   0.00      PROT O 
ATOM      8  OD2 ASP B  40       2.680  -2.960  -1.781  1.0   0.00      PROT O 
ATOM      9 1H   ASP B  40      -0.329  -0.418   0.859  1.0   0.00      PROT H 
ATOM     10 2H   ASP B  40      -0.329   0.953  -0.067  1.0   0.00      PROT H 
ATOM     11  HA  ASP B  40       1.705  -0.500   0.938  1.0   0.00      PROT H 
ATOM     12 1HB  ASP B  40       2.889  -0.273  -1.585  1.0   0.00      PROT H 
ATOM     13 2HB  ASP B  40       1.255  -0.895  -1.944  1.0   0.00      PROT H 
ATOM     14  HD2 ASP B  40       2.978  -3.861  -1.464  1.0   0.00      PROT H 
ATOM     15  N   GLU B  41       1.196   2.476  -0.117  1.0   0.00      PROT N 
ATOM     16  CA  GLU B  41       1.685   3.846  -0.126  1.0   0.00      PROT C 
ATOM     17  C   GLU B  41       1.305   4.562   1.180  1.0   0.00      PROT C 
ATOM     18  O   GLU B  41       2.023   5.474   1.579  1.0   0.00      PROT O 
ATOM     19  CB  GLU B  41       1.191   4.643  -1.345  1.0   0.00      PROT C 
ATOM     20  CG  GLU B  41      -0.311   4.883  -1.438  1.0   0.00      PROT C 
ATOM     21  CD  GLU B  41      -1.077   3.711  -1.969  1.0   0.00      PROT C 
ATOM     22  OE1 GLU B  41      -2.311   4.087  -2.347  1.0   0.00      PROT O 
ATOM     23  OE2 GLU B  41      -0.739   2.552  -2.065  1.0   0.00      PROT O 
ATOM     24  H   GLU B  41       0.204   2.308  -0.198  1.0   0.00      PROT H 
ATOM     25  HA  GLU B  41       2.766   3.734  -0.203  1.0   0.00      PROT H 
ATOM     26 1HB  GLU B  41       1.516   4.084  -2.223  1.0   0.00      PROT H 
ATOM     27 2HB  GLU B  41       1.703   5.604  -1.306  1.0   0.00      PROT H 
ATOM     28 1HG  GLU B  41      -0.468   5.738  -2.096  1.0   0.00      PROT H 
ATOM     29 2HG  GLU B  41      -0.670   5.116  -0.435  1.0   0.00      PROT H 
ATOM     30  HE1 GLU B  41      -2.822   3.296  -2.683  1.0   0.00      PROT H 
ATOM     31  N   MET B  42       0.204   4.192   1.892  1.0   0.00      PROT N 
ATOM     32  CA  MET B  42      -0.185   4.949   3.083  1.0   0.00      PROT C 
ATOM     33  C   MET B  42      -0.682   3.980   4.167  1.0   0.00      PROT C 
ATOM     34  O   MET B  42      -1.405   3.032   3.928  1.0   0.00      PROT O 
ATOM     35  CB  MET B  42      -1.370   5.891   2.774  1.0   0.00      PROT C 
ATOM     36  CG  MET B  42      -0.895   7.217   2.203  1.0   0.00      PROT C 
ATOM     37  SD  MET B  42      -0.260   8.315   3.527  1.0   0.00      PROT S 
ATOM     38  CE  MET B  42      -1.478   9.651   3.565  1.0   0.00      PROT C 
ATOM     39  H   MET B  42      -0.344   3.397   1.597  1.0   0.00      PROT H 
ATOM     40  HA  MET B  42       0.713   5.494   3.374  1.0   0.00      PROT H 
ATOM     41 1HB  MET B  42      -1.917   6.078   3.698  1.0   0.00      PROT H 
ATOM     42 2HB  MET B  42      -2.022   5.405   2.048  1.0   0.00      PROT H 
ATOM     43 1HG  MET B  42      -0.095   7.029   1.486  1.0   0.00      PROT H 
ATOM     44 2HG  MET B  42      -1.731   7.709   1.706  1.0   0.00      PROT H 
ATOM     45 1HE  MET B  42      -1.198  10.376   4.329  1.0   0.00      PROT H 
ATOM     46 2HE  MET B  42      -1.510  10.142   2.592  1.0   0.00      PROT H 
ATOM     47 3HE  MET B  42      -2.461   9.240   3.796  1.0   0.00      PROT H 
ATOM     48  N   ARG B  43      -0.353   4.328   5.452  1.0   0.00      PROT N 
ATOM     49  CA  ARG B  43      -0.806   3.509   6.575  1.0   0.00      PROT C 
ATOM     50  C   ARG B  43      -1.660   4.437   7.462  1.0   0.00      PROT C 
ATOM     51  O   ARG B  43      -1.141   5.351   8.096  1.0   0.00      PROT O 
ATOM     52  CB  ARG B  43       0.389   3.000   7.396  1.0   0.00      PROT C 
ATOM     53  CG  ARG B  43      -0.102   2.072   8.505  1.0   0.00      PROT C 
ATOM     54  CD  ARG B  43       1.057   1.464   9.311  1.0   0.00      PROT C 
ATOM     55  NE  ARG B  43       2.121   2.399   9.710  1.0   0.00      PROT N 
ATOM     56  CZ  ARG B  43       1.820   3.518  10.514  1.0   0.00      PROT C 
ATOM     57  NH1 ARG B  43       0.689   3.444  11.348  1.0   0.00      PROT N 
ATOM     58  NH2 ARG B  43       2.723   4.460  10.562  1.0   0.00      PROT N 
ATOM     59  H   ARG B  43       0.204   5.153   5.624  1.0   0.00      PROT H 
ATOM     60  HA  ARG B  43      -1.353   2.656   6.173  1.0   0.00      PROT H 
ATOM     61 1HB  ARG B  43       0.909   3.846   7.846  1.0   0.00      PROT H 
ATOM     62 2HB  ARG B  43       1.069   2.448   6.747  1.0   0.00      PROT H 
ATOM     63 1HG  ARG B  43      -0.734   2.640   9.188  1.0   0.00      PROT H 
ATOM     64 2HG  ARG B  43      -0.673   1.258   8.059  1.0   0.00      PROT H 
ATOM     65 1HD  ARG B  43       0.662   1.035  10.232  1.0   0.00      PROT H 
ATOM     66 2HD  ARG B  43       1.536   0.688   8.714  1.0   0.00      PROT H 
ATOM     67  HE  ARG B  43       3.110   2.140   9.332  1.0   0.00      PROT H 
ATOM     68 1HH1 ARG B  43       0.528   4.161  12.055  1.0   0.00      PROT H 
ATOM     69 2HH1 ARG B  43       0.029   2.672  11.246  1.0   0.00      PROT H 
ATOM     70  HH2 ARG B  43       2.636   5.215  11.242  1.0   0.00      PROT H 
ATOM     71  N   PRO B  44      -3.001   4.253   7.569  1.0   0.00      PROT N 
ATOM     72  CA  PRO B  44      -3.833   5.273   8.221  1.0   0.00      PROT C 
ATOM     73  C   PRO B  44      -3.879   5.126   9.752  1.0   0.00      PROT C 
ATOM     74  O   PRO B  44      -3.704   4.084  10.356  1.0   0.00      PROT O 
ATOM     75  CB  PRO B  44      -5.260   5.068   7.672  1.0   0.00      PROT C 
ATOM     76  CG  PRO B  44      -5.275   3.658   7.069  1.0   0.00      PROT C 
ATOM     77  CD  PRO B  44      -3.806   3.302   6.779  1.0   0.00      PROT C 
ATOM     78  HA  PRO B  44      -3.382   6.238   7.991  1.0   0.00      PROT H 
ATOM     79 1HB  PRO B  44      -5.494   5.790   6.890  1.0   0.00      PROT H 
ATOM     80 2HB  PRO B  44      -6.005   5.123   8.465  1.0   0.00      PROT H 
ATOM     81 1HG  PRO B  44      -5.716   2.969   7.790  1.0   0.00      PROT H 
ATOM     82 2HG  PRO B  44      -5.869   3.669   6.155  1.0   0.00      PROT H 
ATOM     83 1HD  PRO B  44      -3.623   2.272   7.086  1.0   0.00      PROT H 
ATOM     84 2HD  PRO B  44      -3.619   3.410   5.711  1.0   0.00      PROT H 
ATOM     85  N   CYS B  45      -4.259   6.280  10.389  1.0   0.00      PROT N 
ATOM     86  CA  CYS B  45      -4.486   6.339  11.836  1.0   0.00      PROT C 
ATOM     87  C   CYS B  45      -5.496   7.483  12.057  1.0   0.00      PROT C 
ATOM     88  O   CYS B  45      -5.481   8.496  11.374  1.0   0.00      PROT O 
ATOM     89  CB  CYS B  45      -3.180   6.665  12.569  1.0   0.00      PROT C 
ATOM     90  SG  CYS B  45      -3.419   6.896  14.367  1.0   0.00      PROT S 
ATOM     91  H   CYS B  45      -4.393   7.129   9.859  1.0   0.00      PROT H 
ATOM     92  HA  CYS B  45      -4.845   5.366  12.173  1.0   0.00      PROT H 
ATOM     93 1HB  CYS B  45      -2.476   5.845  12.424  1.0   0.00      PROT H 
ATOM     94 2HB  CYS B  45      -2.765   7.587  12.162  1.0   0.00      PROT H 
ATOM     95  HG  CYS B  45      -2.645   7.111  14.946  1.0   0.00      PROT H 
ATOM     96  N   TRP B  46      -6.448   7.289  13.018  1.0   0.00      PROT N 
ATOM     97  CA  TRP B  46      -7.409   8.351  13.313  1.0   0.00      PROT C 
ATOM     98  C   TRP B  46      -6.811   9.202  14.457  1.0   0.00      PROT C 
ATOM     99  O   TRP B  46      -6.653   8.760  15.586  1.0   0.00      PROT O 
ATOM    100  CB  TRP B  46      -8.749   7.742  13.774  1.0   0.00      PROT C 
ATOM    101  CG  TRP B  46      -9.665   7.516  12.638  1.0   0.00      PROT C 
ATOM    102  CD1 TRP B  46     -10.089   6.307  12.106  1.0   0.00      PROT C 
ATOM    103  NE1 TRP B  46     -11.015   6.537  11.082  1.0   0.00      PROT N 
ATOM    104  CD2 TRP B  46     -10.351   8.558  11.922  1.0   0.00      PROT C 
ATOM    105  CE2 TRP B  46     -11.207   7.912  10.972  1.0   0.00      PROT C 
ATOM    106  CE3 TRP B  46     -10.335   9.953  12.002  1.0   0.00      PROT C 
ATOM    107  CZ2 TRP B  46     -12.061   8.645  10.137  1.0   0.00      PROT C 
ATOM    108  CZ3 TRP B  46     -11.183  10.670  11.181  1.0   0.00      PROT C 
ATOM    109  CH2 TRP B  46     -12.044  10.020  10.271  1.0   0.00      PROT C 
ATOM    110  OXT TRP B  46      -6.578  10.192  14.293  1.0   0.00      PROT O 
ATOM    111  H   TRP B  46      -6.486   6.415  13.522  1.0   0.00      PROT H 
ATOM    112  HA  TRP B  46      -7.563   8.923  12.399  1.0   0.00      PROT H 
ATOM    113 1HB  TRP B  46      -9.219   8.429  14.478  1.0   0.00      PROT H 
ATOM    114 2HB  TRP B  46      -8.548   6.789  14.263  1.0   0.00      PROT H 
ATOM    115  HXT TRP B  46      -6.252  10.612  15.140  1.0   0.00      PROT H 
ATOM    116  HD1 TRP B  46      -9.696   5.371  12.501  1.0   0.00      PROT H 
ATOM    117  HE1 TRP B  46     -11.514   5.906  10.470  1.0   0.00      PROT H 
ATOM    118  HE3 TRP B  46      -9.674  10.477  12.693  1.0   0.00      PROT H 
ATOM    119  HZ2 TRP B  46     -12.720   8.177   9.406  1.0   0.00      PROT H 
ATOM    120  HZ3 TRP B  46     -11.195  11.759  11.228  1.0   0.00      PROT H 
ATOM    121  HH2 TRP B  46     -12.709  10.635   9.665  1.0   0.00      PROT H 
TER     122      TRP B  46
ATOM    123  N   PHE B  50      -5.651  21.731  21.991  1.0   0.00      PROT N 
ATOM    124  CA  PHE B  50      -4.960  22.587  22.945  1.0   0.00      PROT C 
ATOM    125  C   PHE B  50      -5.963  23.514  23.649  1.0   0.00      PROT C 
ATOM    126  O   PHE B  50      -6.982  23.934  23.136  1.0   0.00      PROT O 
ATOM    127  CB  PHE B  50      -3.946  23.497  22.215  1.0   0.00      PROT C 
ATOM    128  CG  PHE B  50      -2.680  22.746  21.947  1.0   0.00      PROT C 
ATOM    129  CD1 PHE B  50      -2.554  21.959  20.802  1.0   0.00      PROT C 
ATOM    130  CD2 PHE B  50      -1.621  22.835  22.853  1.0   0.00      PROT C 
ATOM    131  CE1 PHE B  50      -1.355  21.299  20.544  1.0   0.00      PROT C 
ATOM    132  CE2 PHE B  50      -0.430  22.161  22.598  1.0   0.00      PROT C 
ATOM    133  CZ  PHE B  50      -0.293  21.401  21.439  1.0   0.00      PROT C 
ATOM    134 1H   PHE B  50      -5.472  20.765  22.226  1.0   0.00      PROT H 
ATOM    135 2H   PHE B  50      -6.642  21.919  22.039  1.0   0.00      PROT H 
ATOM    136  HA  PHE B  50      -4.479  21.893  23.635  1.0   0.00      PROT H 
ATOM    137 1HB  PHE B  50      -3.721  24.361  22.840  1.0   0.00      PROT H 
ATOM    138 2HB  PHE B  50      -4.372  23.825  21.267  1.0   0.00      PROT H 
ATOM    139  HD1 PHE B  50      -3.391  21.860  20.109  1.0   0.00      PROT H 
ATOM    140  HD2 PHE B  50      -1.727  23.431  23.759  1.0   0.00      PROT H 
ATOM    141  HE1 PHE B  50      -1.250  20.702  19.639  1.0   0.00      PROT H 
ATOM    142  HE2 PHE B  50       0.396  22.228  23.306  1.0   0.00      PROT H 
ATOM    143  HZ  PHE B  50       0.645  20.886  21.232  1.0   0.00      PROT H 
ATOM    144  N   GLN B  51      -5.633  23.854  24.946  1.0   0.00      PROT N 
ATOM    145  CA  GLN B  51      -6.337  24.966  25.578  1.0   0.00      PROT C 
ATOM    146  C   GLN B  51      -5.758  26.266  24.988  1.0   0.00      PROT C 
ATOM    147  O   GLN B  51      -4.617  26.326  24.556  1.0   0.00      PROT O 
ATOM    148  CB  GLN B  51      -6.115  24.960  27.103  1.0   0.00      PROT C 
ATOM    149  CG  GLN B  51      -7.420  25.149  27.873  1.0   0.00      PROT C 
ATOM    150  CD  GLN B  51      -7.964  26.543  27.698  1.0   0.00      PROT C 
ATOM    151  OE1 GLN B  51      -8.697  26.851  26.753  1.0   0.00      PROT O 
ATOM    152  NE2 GLN B  51      -7.593  27.507  28.581  1.0   0.00      PROT N 
ATOM    153  H   GLN B  51      -4.919  23.336  25.438  1.0   0.00      PROT H 
ATOM    154  HA  GLN B  51      -7.398  24.839  25.363  1.0   0.00      PROT H 
ATOM    155 1HB  GLN B  51      -5.433  25.773  27.355  1.0   0.00      PROT H 
ATOM    156 2HB  GLN B  51      -5.673  24.004  27.383  1.0   0.00      PROT H 
ATOM    157 1HG  GLN B  51      -7.232  24.972  28.932  1.0   0.00      PROT H 
ATOM    158 2HG  GLN B  51      -8.154  24.433  27.501  1.0   0.00      PROT H 
ATOM    159 1HE2 GLN B  51      -7.125  28.249  28.080  1.0   0.00      PROT H 
ATOM    160 2HE2 GLN B  51      -8.417  27.867  29.040  1.0   0.00      PROT H 
ATOM    161  N   LEU B  52      -6.579  27.361  24.950  1.0   0.00      PROT N 
ATOM    162  CA  LEU B  52      -6.198  28.538  24.175  1.0   0.00      PROT C 
ATOM    163  C   LEU B  52      -5.105  29.370  24.859  1.0   0.00      PROT C 
ATOM    164  O   LEU B  52      -4.466  30.185  24.211  1.0   0.00      PROT O 
ATOM    165  CB  LEU B  52      -7.398  29.458  23.920  1.0   0.00      PROT C 
ATOM    166  CG  LEU B  52      -8.550  28.763  23.164  1.0   0.00      PROT C 
ATOM    167  CD1 LEU B  52      -9.527  29.839  22.680  1.0   0.00      PROT C 
ATOM    168  CD2 LEU B  52      -8.038  27.926  21.992  1.0   0.00      PROT C 
ATOM    169  H   LEU B  52      -7.451  27.356  25.458  1.0   0.00      PROT H 
ATOM    170  HA  LEU B  52      -5.824  28.097  23.251  1.0   0.00      PROT H 
ATOM    171 1HB  LEU B  52      -7.789  29.804  24.877  1.0   0.00      PROT H 
ATOM    172 2HB  LEU B  52      -7.073  30.309  23.322  1.0   0.00      PROT H 
ATOM    173  HG  LEU B  52      -9.060  28.069  23.832  1.0   0.00      PROT H 
ATOM    174 1HD1 LEU B  52      -9.877  30.421  23.532  1.0   0.00      PROT H 
ATOM    175 2HD1 LEU B  52      -9.022  30.497  21.973  1.0   0.00      PROT H 
ATOM    176 3HD1 LEU B  52     -10.377  29.364  22.190  1.0   0.00      PROT H 
ATOM    177 1HD2 LEU B  52      -7.346  27.169  22.361  1.0   0.00      PROT H 
ATOM    178 2HD2 LEU B  52      -8.879  27.439  21.498  1.0   0.00      PROT H 
ATOM    179 3HD2 LEU B  52      -7.524  28.572  21.281  1.0   0.00      PROT H 
ATOM    180  N   ASP B  53      -4.883  29.222  26.209  1.0   0.00      PROT N 
ATOM    181  CA  ASP B  53      -3.703  29.819  26.837  1.0   0.00      PROT C 
ATOM    182  C   ASP B  53      -2.499  28.845  26.856  1.0   0.00      PROT C 
ATOM    183  O   ASP B  53      -1.483  29.133  27.478  1.0   0.00      PROT O 
ATOM    184  CB  ASP B  53      -4.021  30.222  28.282  1.0   0.00      PROT C 
ATOM    185  CG  ASP B  53      -4.271  29.032  29.142  1.0   0.00      PROT C 
ATOM    186  OD1 ASP B  53      -4.891  28.033  28.806  1.0   0.00      PROT O 
ATOM    187  OD2 ASP B  53      -3.710  29.117  30.349  1.0   0.00      PROT O 
ATOM    188  H   ASP B  53      -5.537  28.698  26.774  1.0   0.00      PROT H 
ATOM    189  HA  ASP B  53      -3.484  30.688  26.217  1.0   0.00      PROT H 
ATOM    190  HXT ASP B  53      -2.554  27.901  26.314  1.0   0.00      PROT H 
ATOM    191 1HB  ASP B  53      -4.911  30.851  28.280  1.0   0.00      PROT H 
ATOM    192 2HB  ASP B  53      -3.174  30.778  28.683  1.0   0.00      PROT H 
ATOM    193  HD2 ASP B  53      -3.886  28.279  30.867  1.0   0.00      PROT H 
TER     194      ASP B  53
HETATM  195  S   SO4 B  60       2.137  12.534  23.504  1.0   0.00      PROT S 
HETATM  196  O1  SO4 B  60       2.043  10.996  24.333  1.0   0.00      PROT O 
HETATM  197  O2  SO4 B  60       1.284  11.849  22.138  1.0   0.00      PROT O 
HETATM  198  O3  SO4 B  60       3.504  12.889  22.472  1.0   0.00      PROT O 
HETATM  199  O4  SO4 B  60       2.990  13.218  24.870  1.0   0.00      PROT O 
HETATM  200  H1  SO4 B  60       1.726   9.953  24.355  1.0   0.00      PROT H 
HETATM  201  H4  SO4 B  60       3.791  13.162  25.607  1.0   0.00      PROT H 
TER     202      SO4 B  60
HETATM  203  P   PO4 B  61       0.402  13.868  18.901  1.0   0.00      PROT P 
HETATM  204  O1  PO4 B  61       0.237  12.244  19.636  1.0   0.00      PROT O 
HETATM  205  O2  PO4 B  61      -0.867  15.103  19.165  1.0   0.00      PROT O 
HETATM  206  O3  PO4 B  61      -0.461  13.294  17.441  1.0   0.00      PROT O 
HETATM  207  O4  PO4 B  61       1.264  14.441  20.361  1.0   0.00      PROT O 
HETATM  208  H1  PO4 B  61      -0.325  11.536  20.245  1.0   0.00      PROT H 
HETATM  209  H3  PO4 B  61      -1.302  13.368  16.751  1.0   0.00      PROT H 
HETATM  210  H4  PO4 B  61       1.333  15.119  21.211  1.0   0.00      PROT H 
TER     211      PO4 B  61
HETATM  212  O   HOH B  62       7.271  17.153  31.388  1.0   0.00      PROT O 
HETATM  213 1H   HOH B  62       8.228  17.153  31.388  1.0   0.00      PROT H 
HETATM  214 2H   HOH B  62       7.033  17.668  32.159  1.0   0.00      PROT H 
END

          GEOMETRY RESEQUENCED

 ******************************************************************************
 *                                                                            *
 *     Error and normal termination messages reported in this calculation     *
 *                                                                            *
 * GEOMETRY RESEQUENCED                                                       *
 * JOB ENDED NORMALLY                                                         *
 *                                                                            *
 ******************************************************************************



 TOTAL JOB TIME:             0.02 SECONDS

 == MOPAC DONE ==
