 *******************************************************************************
 ** Site#:    0         For non-commercial use only           Version 21.055M **
 *******************************************************************************
 ** Cite this program as: MOPAC2016, Version: 21.055M, James J. P. Stewart,   **
 ** Stewart Computational Chemistry, web-site: HTTP://OpenMOPAC.net.          **
 *******************************************************************************
 **                                                                           **
 **                                MOPAC2016                                  **
 **                                                                           **
 *******************************************************************************

                              INDO CALCULATION RESULTS

 *******************************************************************************
 *  CALCULATION DONE:                                Fri Feb 26 19:06:39 2021  *
 *  INDO       - The INDO Hamiltonian to be used
 * C.A.S.=(N,M)-  1 DOUBLY FILLED LEVELS USED IN A
 *             CAS REF DET GENERATION INVOLVING  3 M.O.'S
 *  T=         - A TIME OF 172800.0 SECONDS REQUESTED
 *  DUMP=N     - RESTART FILE WRITTEN EVERY 7200.0 SECONDS REQUESTED
 *******************************************************************************
INDO C.A.S.=(3,1)
 Carbon Monoxide
 INDO
   ATOM   CHEMICAL          X               Y               Z
  NUMBER   SYMBOL      (ANGSTROMS)     (ANGSTROMS)     (ANGSTROMS)

     1       C          0.00000000      0.00000000      0.00000000   
     2       O          1.17300000      0.00000000      0.00000000   



          CARTESIAN COORDINATES 

    NO.       ATOM           X           Y           Z

     1         C          0.0000      0.0000      0.0000
     2         O          1.1730      0.0000      0.0000

           Empirical Formula: C O  =     2 atoms



      MOLECULAR POINT GROUP   :   C*v 


      RHF CALCULATION, NO. OF DOUBLY OCCUPIED LEVELS = 5

 WARNING: INDO only performs single-point calculations

 Summary of symmetry occupancy in each shell:

 SHELL     
    1    5
    v    3
 TOTAL   8




    ROOT NO.    1           2           3           4           5           6

           -43.05652   -19.27644   -14.77940   -14.77940   -14.49534     0.09603
  
  
  S  C   1   0.44267    -0.58677    -0.00000    -0.00000    -0.60295    -0.00000
 PX  C   1   0.36283     0.01825     0.00000    -0.00000     0.61061    -0.00000
 PY  C   1  -0.00000     0.00000     0.48812    -0.00000    -0.00000     0.87278
 PZ  C   1   0.00000    -0.00000    -0.00000     0.48812     0.00000     0.00000
  
  S  O   2   0.77781     0.52976     0.00000    -0.00000    -0.10914    -0.00000
 PX  O   2  -0.25962     0.61215    -0.00000     0.00000    -0.50170    -0.00000
 PY  O   2  -0.00000    -0.00000     0.87278     0.00000    -0.00000    -0.48812
 PZ  O   2  -0.00000     0.00000    -0.00000     0.87278     0.00000     0.00000




    ROOT NO.    7           8

             0.09603    10.49950
  
  
  S  C   1  -0.00000     0.31016
 PX  C   1  -0.00000     0.70369
 PY  C   1  -0.00000     0.00000
 PZ  C   1   0.87278    -0.00000
  
  S  O   2  -0.00000    -0.32009
 PX  O   2   0.00000     0.55333
 PY  O   2  -0.00000    -0.00000
 PZ  O   2  -0.48812     0.00000


 Reference determinate nber   1 is ALPHA 1 -   5
 CAS excitations amongst orbitals:   5   6   7
 SINGLE excitations FROM orbs   5 to   5 INTO orbs   6 to   7


 CI excitations=    6:        =  6
 The lowest    6 spin-adapted configurations of multiplicity=  1
     sym   eV   cm**-1 -dets- dipole oscilator X FRAG ....Excitations named from first reference determinate
                       tot  #  Debye  strength

   1     -0.000      0.  1  1  0.4656 0.000000 0  0 (        )->(           )
   2      6.886  55542.  2  1  1.8085 0.063444 1  1 (   5    )->(   6       )
   3      6.886  55542.  2  1  1.8085 0.063444 1  1 (   5    )->(   7       )
   4     13.933 112374.  2  1  3.1514 0.000000 2  1 (   5   5)->(   6   7   )
   5     14.294 115286.  1  1  3.1514 0.000000 2  0 (   5   5)->(   6   6   )
   6     14.294 115286.  1  1  3.1514 0.000000 2  0 (   5   5)->(   7   7   )

 Depression of ground-state after CI=       -792. cm**-1 Energy=  -462.4496021 eV
 Dipole moment= -0.483401 -0.000000 -0.000000 tot=  0.483401 Debyes


  CI trans.  energy frequency wavelength oscillator--------- polarization---------  dipole  ------ components-----
 st.  symm.    eV      cm - 1       nm      strength       x          y         z       moment     x       y       z 

   2      6.9845001    56334.    177.51  0.056759  -0.000000   0.993936   0.109961  1.808525  -1.809   0.000   0.000
   3      6.9845001    56334.    177.51  0.056759  -0.000000   0.109961  -0.993936  1.808525  -1.809  -0.000  -0.000
   4     14.0308249   113167.     88.37  0.000000                                   3.151416  -3.151   0.000  -0.000
   5     14.0308249   113167.     88.37  0.000000                                   3.151416  -3.151   0.000  -0.000
   6     14.8511617   119783.     83.48  0.002670   1.000000  -0.000000  -0.000000  3.133649  -3.134   0.000  -0.000

 Polarizability (au  ) xx=    0.03 xy=   -0.00 yy=    2.58 xz=   -0.00 yz=    0.00 zz=    2.58
 Polarizability (A**3) xx=    0.00 xy=   -0.00 yy=    0.38 xz=   -0.00 yz=    0.00 zz=    0.38


 Major CI contributions to CI states

State    1  0.0000     CI coeff  CI percent
    Config       1   0.99668691  0.99338481
    Config       5  -0.05751171  0.00330760
    Config       6  -0.05751171  0.00330760
 Total coeff printed             1.00000000
  
State    2  6.9845     CI coeff  CI percent
    Config       2   0.99393590  0.98790857
    Config       3   0.10996102  0.01209143
 Total coeff printed             1.00000000
  
State    3  6.9845     CI coeff  CI percent
    Config       2   0.10996102  0.01209143
    Config       3  -0.99393590  0.98790857
 Total coeff printed             1.00000000
  
State    4 14.0308     CI coeff  CI percent
    Config       5  -0.70710678  0.50000000
    Config       6   0.70710678  0.50000000
 Total coeff printed             1.00000000
  
State    5 14.0308     CI coeff  CI percent
    Config       4   1.00000000  1.00000000
 Total coeff printed             1.00000000
  
State    6 14.8512     CI coeff  CI percent
    Config       1   0.08133384  0.00661519
    Config       5   0.70476408  0.49669240
    Config       6   0.70476408  0.49669240
 Total coeff printed             1.00000000
  

 **********************
 *                    *
 * JOB ENDED NORMALLY *
 *                    *
 **********************



 TOTAL JOB TIME:             0.00 SECONDS

 == MOPAC DONE ==
