 *******************************************************************************
 ** Site#:    0         For non-commercial use only    Version 20.173L 64BITS **
 *******************************************************************************
 ** Cite this program as: MOPAC2016, Version: 20.173L, James J. P. Stewart,   **
 ** Stewart Computational Chemistry, web-site: HTTP://OpenMOPAC.net.          **
 *******************************************************************************
 **                                                                           **
 **                                MOPAC2016                                  **
 **                                                                           **
 *******************************************************************************

                              INDO CALCULATION RESULTS

 *******************************************************************************
 *  CALCULATION DONE:                                Mon Jun 29 13:00:58 2020  *
 *  INDO       - The INDO Hamiltonian to be used
 *  MRCI       -  Use multi-reference CI (specify ref dets using C.A.S.)
 * C.A.S.=(N,M)-  1 DOUBLY FILLED LEVELS USED IN A
 *             CAS REF DET GENERATION INVOLVING  3 M.O.'S
 *  EPS= 20.00 - USE ANDREAS KLAMT'S COSMO IMPLICIT SOLVATION MODEL
 *  T=         - A TIME OF 172800.0 SECONDS REQUESTED
 *  DUMP=N     - RESTART FILE WRITTEN EVERY 7200.0 SECONDS REQUESTED
 *******************************************************************************
INDO MRCI C.A.S.=(3,1) EPS=20.0
 Carbon Monoxide
 INDO
   ATOM   CHEMICAL          X               Y               Z
  NUMBER   SYMBOL      (ANGSTROMS)     (ANGSTROMS)     (ANGSTROMS)
 
     1       C          0.00000000      0.00000000      0.00000000   
     2       O          1.17300000      0.00000000      0.00000000   
 


          CARTESIAN COORDINATES 

    NO.       ATOM           X           Y           Z

     1         C          0.0000      0.0000      0.0000
     2         O          1.1730      0.0000      0.0000

           Empirical Formula: C O  =     2 atoms



      MOLECULAR POINT GROUP   :   C*v 


      RHF CALCULATION, NO. OF DOUBLY OCCUPIED LEVELS = 5

 WARNING: INDO only performs single-point calculations

 Summary of symmetry occupancy in each shell:

 SHELL     
    1    5
    v    3
 TOTAL   8




    ROOT NO.    1           2           3           4           5           6

           -43.14537   -19.34705   -14.87338   -14.87242   -14.51055     0.10948
  
  
  S  C   1   0.44066    -0.58012    -0.00000    -0.00000     0.61052     0.00000
 PX  C   1   0.36235     0.01057     0.00000     0.00000    -0.61007     0.00000
 PY  C   1  -0.00000    -0.00000     0.00000     0.47912     0.00000     0.00000
 PZ  C   1  -0.00000    -0.00000     0.47911    -0.00000     0.00000     0.87776
  
  S  O   2   0.77936     0.52897    -0.00000    -0.00000     0.10282    -0.00000
 PX  O   2  -0.25907     0.61931     0.00000     0.00000     0.49448    -0.00000
 PY  O   2   0.00000    -0.00000    -0.00000     0.87775    -0.00000     0.00000
 PZ  O   2   0.00000    -0.00000     0.87776     0.00000    -0.00000    -0.47911




    ROOT NO.    7           8

             0.11027    10.45159
  
  
  S  C   1   0.00000     0.31071
 PX  C   1   0.00000     0.70456
 PY  C   1   0.87775    -0.00000
 PZ  C   1  -0.00000    -0.00000
  
  S  O   2  -0.00000    -0.31972
 PX  O   2  -0.00000     0.55212
 PY  O   2  -0.47912    -0.00000
 PZ  O   2  -0.00000    -0.00000


 Reference determinate nber   1 is ALPHA 1 -   5
 CAS excitations amongst orbitals:   5   6   7
 SINGLE excitations FROM orbs   1 to   5 INTO orbs   6 to   8
 

 CI excitations=   77:        = 77
 The lowest   77 spin-adapted configurations of multiplicity=  1
     sym   eV   cm**-1 -dets- dipole oscilator X FRAG ....Excitations named from first reference determinate
                       tot  #  Debye  strength
 
   1      0.006      0.  1  1  0.6699 0.000000 0  0 (            )->(               )
   2      6.929  55839.  2  1  2.0437 0.067097 1  1 (   5        )->(   6           )
   3      6.930  55846.  2  1  2.0438 0.067103 1  1 (   5        )->(   7           )
   4      7.080  57057.  2  1  2.3775 0.000000 1  1 (   4        )->(   6           )
   5      7.082  57071.  2  1  2.3775 0.000000 1  1 (   3        )->(   7           )
   6     10.596  85415.  2  1  2.3774 0.450931 1  1 (   4        )->(   7           )
   7     10.596  85415.  2  1  2.3775 0.450917 1  1 (   3        )->(   6           )
   8     12.590 101496.  2  1  2.8029 0.231761 1  1 (   2        )->(   6           )
   9     12.591 101503.  2  1  2.8029 0.231776 1  1 (   2        )->(   7           )
  10     13.411 108119.  6  1  1.0035 0.000000 2  1 (   4   5    )->(   6   7       )
  11     13.412 108127.  6  1  1.0036 0.000000 2  1 (   3   5    )->(   6   7       )
  12     13.990 112791.  2  1  3.4177 0.000000 2  1 (   5   5    )->(   6   7       )
  13     14.118 113823.  2  1  1.0036 0.000000 2  1 (   4   5    )->(   6   6       )
  14     14.120 113842.  2  1  1.0035 0.000000 2  1 (   3   5    )->(   7   7       )
  15     14.354 115728.  1  1  3.4176 0.000000 2  0 (   5   5    )->(   6   6       )
  16     14.356 115741.  1  1  3.4177 0.000000 2  0 (   5   5    )->(   7   7       )
  17     15.150 122145.  2  1  1.0037 0.000000 2  1 (   3   5    )->(   6   6       )
  18     15.150 122149.  2  1  1.0035 0.000000 2  1 (   4   5    )->(   7   7       )
  19     17.495 141058.  2  1  0.9583 0.001799 1  1 (   4        )->(   8           )
  20     17.496 141065.  2  1  0.9583 0.001800 1  1 (   3        )->(   8           )
  21     17.763 143222.  6  2  1.0035 0.000000 2  1 (   4   5    )->(   6   7       )
  22     17.764 143229.  6  2  1.0036 0.000000 2  1 (   3   5    )->(   6   7       )
  23     18.405 148397.  2  1  3.4629 0.418963 1  1 (   5        )->(   8           )
  24     19.160 154485.  6  1  1.4290 0.000000 2  1 (   2   5    )->(   6   7       )
  25     20.762 167409.  6  2  1.4290 0.000000 2  1 (   2   5    )->(   6   7       )
  26     21.126 170346.  2  1  1.4291 0.000000 2  1 (   2   5    )->(   6   6       )
  27     21.127 170358.  2  1  1.4289 0.000000 2  1 (   2   5    )->(   7   7       )
  28     22.914 184766.  2  1  0.3704 0.000000 3  1 (   4   5   5)->(   6   7   7   )
  29     22.914 184768.  2  1  0.3702 0.000000 3  1 (   3   5   5)->(   6   6   7   )
  30     23.084 186142.  2  1  1.3837 0.007713 1  1 (   2        )->(   8           )
  31     24.245 195501.  6  1  0.4157 0.000000 2  1 (   4   5    )->(   7   8       )
  32     24.245 195502.  6  1  0.4155 0.000000 2  1 (   3   5    )->(   6   8       )
  33     24.353 196372.  6  1  0.4156 0.000000 2  1 (   4   5    )->(   6   8       )
  34     24.354 196385.  6  1  0.4156 0.000000 2  1 (   3   5    )->(   7   8       )
  35     25.272 203786.  6  2  0.4156 0.000000 2  1 (   4   5    )->(   6   8       )
  36     25.274 203800.  6  2  0.4156 0.000000 2  1 (   3   5    )->(   7   8       )
  37     25.397 204797.  2  1  0.3703 0.000000 3  1 (   4   5   5)->(   6   6   7   )
  38     25.399 204810.  2  1  0.3703 0.000000 3  1 (   3   5   5)->(   6   7   7   )
  39     26.044 210010.  2  1  4.8368 0.000000 2  1 (   5   5    )->(   6   8       )
  40     26.045 210017.  2  1  4.8369 0.000000 2  1 (   5   5    )->(   7   8       )
  41     27.032 217979.  2  1  0.0552 0.000000 3  1 (   2   5   5)->(   6   6   7   )
  42     27.033 217985.  2  1  0.0551 0.000000 3  1 (   2   5   5)->(   6   7   7   )
  43     28.412 229114.  6  2  0.4157 0.000000 2  1 (   4   5    )->(   7   8       )
  44     28.412 229114.  6  2  0.4155 0.000000 2  1 (   3   5    )->(   6   8       )
  45     30.276 244143.  6  1  0.0099 0.000000 2  1 (   2   5    )->(   6   8       )
  46     30.276 244149.  6  1  0.0098 0.000000 2  1 (   2   5    )->(   7   8       )
  47     32.150 259259.  6  2  0.0099 0.000000 2  1 (   2   5    )->(   6   8       )
  48     32.151 259266.  6  2  0.0098 0.000000 2  1 (   2   5    )->(   7   8       )
  49     32.430 261520.  6  1  1.7895 0.000000 3  1 (   4   5   5)->(   6   7   8   )
  50     32.431 261528.  6  1  1.7894 0.000000 3  1 (   3   5   5)->(   6   7   8   )
  51     33.393 269289.  2  1  1.7894 0.000000 3  1 (   4   5   5)->(   6   6   8   )
  52     33.396 269309.  2  1  1.7895 0.000000 3  1 (   3   5   5)->(   7   7   8   )
  53     34.425 277612.  2  1  1.7894 0.000000 3  1 (   3   5   5)->(   6   6   8   )
  54     34.426 277616.  2  1  1.7896 0.000000 3  1 (   4   5   5)->(   7   7   8   )
  55     36.236 292215.  6  2  1.7895 0.000000 3  1 (   4   5   5)->(   6   7   8   )
  56     36.237 292221.  6  2  1.7894 0.000000 3  1 (   3   5   5)->(   6   7   8   )
  57     36.484 294213.  2  1  1.9068 0.020335 1  1 (   1        )->(   6           )
  58     36.484 294219.  2  1  1.9067 0.020332 1  1 (   1        )->(   7           )
  59     38.259 308531.  6  1  1.3640 0.000000 3  1 (   2   5   5)->(   6   7   8   )
  60     38.623 311468.  2  1  1.3640 0.000000 3  1 (   2   5   5)->(   6   6   8   )
  61     38.624 311480.  2  1  1.3641 0.000000 3  1 (   2   5   5)->(   7   7   8   )
  62     38.698 312074.  6  2  1.3640 0.000000 3  1 (   2   5   5)->(   6   7   8   )
  63     41.935 338181.  6  1  0.5329 0.000000 2  1 (   1   5    )->(   6   7       )
  64     42.299 341118.  2  1  0.5329 0.000000 2  1 (   1   5    )->(   6   6       )
  65     42.300 341130.  2  1  0.5328 0.000000 2  1 (   1   5    )->(   7   7       )
  66     43.688 352325.  6  2  0.5329 0.000000 2  1 (   1   5    )->(   6   7       )
  67     49.779 401450.  2  1  0.4876 0.068898 1  1 (   1        )->(   8           )
  68     50.518 407408.  2  1  0.8410 0.000000 3  1 (   1   5   5)->(   6   6   7   )
  69     50.519 407414.  2  1  0.8410 0.000000 3  1 (   1   5   5)->(   6   7   7   )
  70     51.963 419062.  6  1  0.8862 0.000000 2  1 (   1   5    )->(   6   8       )
  71     51.964 419069.  6  1  0.8863 0.000000 2  1 (   1   5    )->(   7   8       )
  72     57.201 461310.  6  2  0.8862 0.000000 2  1 (   1   5    )->(   6   8       )
  73     57.202 461316.  6  2  0.8863 0.000000 2  1 (   1   5    )->(   7   8       )
  74     60.419 487269.  6  1  2.2602 0.000000 3  1 (   1   5   5)->(   6   7   8   )
  75     64.546 520551.  6  2  2.2602 0.000000 3  1 (   1   5   5)->(   6   7   8   )
  76     64.910 523488.  2  1  2.2601 0.000000 3  1 (   1   5   5)->(   6   6   8   )
  77     64.911 523501.  2  1  2.2602 0.000000 3  1 (   1   5   5)->(   7   7   8   )

 Depression of ground-state after CI=      -3282. cm**-1 Energy=   190.4241913 eV
 Dipole moment= -0.698759  0.000000  0.000000 tot=  0.698759 Debyes


  CI trans.  energy frequency wavelength oscillator ---------polarization---------    dipole   ------components----- 
 st.  symm.    eV      cm-1       nm      strength       x          y         z       moment     x       y       z 

   2      6.8979385    55636.    179.74  0.000000                                   1.853479   1.853  -0.000  -0.000
   3      7.0019555    56475.    177.07  0.043757  -0.000000  -0.000006  -1.000000  1.729325  -1.729   0.000   0.000
   4      7.0026186    56480.    177.05  0.043761  -0.000000  -1.000000   0.000006  1.729329  -1.729   0.000   0.000
   5      7.2521280    58493.    170.96  0.000000                                   1.795869   1.796  -0.000  -0.000
   6      7.2521770    58493.    170.96  0.000000                                   1.795349   1.795  -0.000  -0.000
   7     11.2875684    91041.    109.84  0.164876  -0.000000  -0.000009  -1.000000  1.807876   1.808  -0.000  -0.000
   8     11.2878922    91043.    109.84  0.164873   0.000000   1.000000  -0.000009  1.807780   1.808  -0.000  -0.000
   9     12.1457235    97962.    102.08  0.519452   1.000000  -0.000000  -0.000000  1.542247   1.542  -0.000  -0.000
  10     13.7578619   110965.     90.12  0.000052   0.000000   1.000000  -0.000029  0.881275   0.881  -0.000  -0.000
  11     13.7578632   110965.     90.12  0.000049   0.000000   0.000030   1.000000  0.881271   0.881  -0.000  -0.000
  12     14.0229818   113103.     88.41  0.041830  -0.000000   0.000000  -1.000000  0.978380   0.978  -0.000  -0.000
  13     14.0230777   113104.     88.41  0.041826   0.000000   1.000000   0.000000  0.978397   0.978  -0.000  -0.000
  14     14.3194562   115494.     86.58  0.000000                                   3.379135  -3.379   0.000   0.000
  15     14.3194586   115495.     86.58  0.000000                                   3.378469  -3.378   0.000   0.000
  16     14.7450815   118927.     84.08  0.005950   0.000000  -1.000000   0.000004  0.919228   0.919  -0.000  -0.000
  17     14.7452652   118929.     84.08  0.005939   0.000000  -0.000004  -1.000000  0.919207   0.919  -0.000  -0.000
  18     15.1236534   121981.     81.98  0.011753   1.000000  -0.000000  -0.000000  3.223968  -3.224   0.000   0.000
  19     17.6820034   142615.     70.12  0.002255   0.000000   1.000000  -0.000001  0.911457   0.911  -0.000   0.000
  20     17.6825170   142619.     70.12  0.002256  -0.000000  -0.000001  -1.000000  0.911531   0.912   0.000  -0.000
  21     18.9140118   152552.     65.55  0.544765   1.000000  -0.000000  -0.000000  2.256698  -2.257   0.000   0.000
  22     19.0459721   153617.     65.10  0.000000                                   1.054761   1.055  -0.000  -0.000
  23     19.3168040   155801.     64.18  0.026862   0.000000  -0.000011   1.000000  1.040784   1.041  -0.000  -0.000
  24     19.3169567   155802.     64.18  0.026867   0.000000   1.000000   0.000011  1.040756   1.041  -0.000  -0.000
  25     19.9243125   160701.     62.23  0.000000   1.000000  -0.000000   0.000000  0.553315   0.553  -0.000  -0.000
  26     19.9243143   160701.     62.23  0.000000                                   0.552603   0.553  -0.000  -0.000
  27     20.9096453   168648.     59.30  0.080727   1.000000  -0.000000  -0.000000  0.130973  -0.131   0.000   0.000
  28     21.5671874   173952.     57.49  0.000000                                   0.060720  -0.061  -0.000  -0.000
  29     22.7997207   183893.     54.38  0.304719  -1.000000   0.000000   0.000000  1.355177   1.355  -0.000  -0.000
  30     24.6337707   198685.     50.33  0.000000                                   0.285413  -0.285  -0.000  -0.000
  31     24.6337910   198685.     50.33  0.000000                                   0.284643  -0.285  -0.000  -0.000
  32     24.7437003   199572.     50.11  0.000000                                   0.133029  -0.133  -0.000  -0.000
  33     24.8881510   200737.     49.82  0.001264   1.000000  -0.000000  -0.000000  0.226951  -0.227  -0.000  -0.000
  34     25.6287417   206710.     48.38  0.000000                                   0.141026   0.141  -0.000  -0.000
  35     25.6292035   206714.     48.38  0.000000                                   0.150567   0.151  -0.000  -0.000
  36     25.6769931   207099.     48.29  0.000000                                   0.199488  -0.199   0.000   0.000
  37     26.1711325   211085.     47.37  0.000000                                   0.221747   0.222   0.000   0.000
  38     26.1714456   211087.     47.37  0.000000                                   0.210556   0.211   0.000   0.000
  39     26.2658795   211849.     47.20  0.003265  -0.000000   0.000004   1.000000  3.088684  -3.089   0.000   0.000
  40     26.2664172   211853.     47.20  0.003264   0.000000  -1.000000   0.000004  3.088027  -3.088   0.000   0.000
  41     27.0434401   218121.     45.85  0.003699   1.000000  -0.000000  -0.000000  0.138501   0.139   0.000   0.000
  42     27.5935724   222558.     44.93  0.000529  -0.000000  -1.000000   0.000341  0.644779  -0.645   0.000   0.000
  43     27.5936874   222559.     44.93  0.000529  -0.000000  -0.000342  -1.000000  0.644214  -0.644   0.000   0.000
  44     30.8093507   248495.     40.24  0.000010  -0.000000   0.000006   1.000000  0.098593  -0.099   0.000   0.000
  45     30.8098727   248499.     40.24  0.000010  -0.000000   1.000000  -0.000006  0.098707  -0.099   0.000   0.000
  46     31.1722096   251421.     39.77  0.000115  -0.000000  -0.000005  -1.000000  0.834929  -0.835   0.000   0.000
  47     31.1727298   251426.     39.77  0.000115   0.000000   1.000000  -0.000005  0.835044  -0.835   0.000   0.000
  48     32.7822016   264407.     37.82  0.000030  -0.000000   0.000001  -1.000000  1.453056  -1.453   0.000   0.000
  49     32.7824712   264409.     37.82  0.000030   0.000000   1.000000   0.000001  1.453017  -1.453   0.000   0.000
  50     33.0637695   266678.     37.50  0.018163   1.000000  -0.000000  -0.000000  0.048175  -0.048   0.000   0.000
  51     33.1397540   267291.     37.41  0.000000   0.000000   1.000000  -0.000320  1.666956  -1.667   0.000   0.000
  52     33.1397543   267291.     37.41  0.000000  -0.000000  -0.000343  -1.000000  1.666966  -1.667   0.000   0.000
  53     34.1075056   275096.     36.35  0.000006  -0.000000   1.000000  -0.000001  1.642352  -1.642   0.000   0.000
  54     34.1080150   275100.     36.35  0.000006  -0.000000   0.000001   1.000000  1.642379  -1.642   0.000   0.000
  55     36.6594221   295679.     33.82  0.018235  -0.000000  -0.000010  -1.000000  1.470398   1.470  -0.000  -0.000
  56     36.6598055   295682.     33.82  0.018232   0.000000   1.000000  -0.000010  1.470346   1.470  -0.000  -0.000
  57     38.7997049   312942.     31.95  0.000000                                   1.364378  -1.364   0.000   0.000
  58     38.7997067   312942.     31.95  0.000000                                   1.364329  -1.364   0.000   0.000
  59     39.0146869   314675.     31.78  0.000000                                   1.485271  -1.485   0.000   0.000
  60     39.6583653   319867.     31.26  0.000010   1.000000  -0.000000  -0.000000  1.367465  -1.367   0.000   0.000
  61     39.8004074   321013.     31.15  0.000038   0.000000  -0.000004   1.000000  1.833197  -1.833   0.000   0.000
  62     39.8006746   321015.     31.15  0.000038   0.000000   1.000000   0.000004  1.833349  -1.833   0.000   0.000
  63     42.3504743   341580.     29.28  0.000000                                   0.794109   0.794  -0.000  -0.000
  64     42.3504780   341581.     29.28  0.000000                                   0.794092   0.794  -0.000  -0.000
  65     43.1299952   347868.     28.75  0.000535   1.000000  -0.000000  -0.000000  0.768837   0.769  -0.000  -0.000
  66     44.0285203   355115.     28.16  0.000000                                   0.412547   0.413  -0.000  -0.000
  67     50.7058816   408972.     24.45  0.292637  -1.000000   0.000000   0.000000  0.347003   0.347   0.000   0.000
  68     50.9538174   410971.     24.33  0.000037  -0.000000   1.000000  -0.000219  0.708626  -0.709   0.000   0.000
  69     50.9538404   410971.     24.33  0.000037   0.000000  -0.000219  -1.000000  0.708704  -0.709   0.000   0.000
  70     52.6679995   424797.     23.54  0.001683  -0.000000  -0.000008  -1.000000  0.262313  -0.262   0.000   0.000
  71     52.6685044   424801.     23.54  0.001682  -0.000000  -1.000000   0.000008  0.262398  -0.262   0.000   0.000
  72     58.0702539   468369.     21.35  0.000073  -0.000000   0.000008   1.000000  0.941727  -0.942   0.000   0.000
  73     58.0707286   468373.     21.35  0.000073   0.000000  -1.000000   0.000008  0.941809  -0.942   0.000   0.000
  74     60.9065342   491246.     20.36  0.000000                                   1.928575  -1.929   0.000   0.000
  75     65.2131174   525981.     19.01  0.000000                                   2.380402  -2.380   0.000   0.000
  76     65.2131175   525981.     19.01  0.000000                                   2.380406  -2.380   0.000   0.000
  77     66.0545484   532767.     18.77  0.000105  -1.000000   0.000000   0.000000  2.364217  -2.364   0.000   0.000
 
 Polarizability (au  ) xx=   13.34 xy=   -0.00 yy=    5.61 xz=   -0.00 yz=    0.00 zz=    5.61
 Polarizability (A**3) xx=    1.98 xy=   -0.00 yy=    0.83 xz=   -0.00 yz=    0.00 zz=    0.83
 
 
 Major CI contributions to CI states
 
State    1  0.0000     CI coeff  CI percent
    Config       1   0.99148255  0.98303764
    Config      15  -0.05633841  0.00317402
    Config      16  -0.05633314  0.00317342
    Config      43  -0.06160346  0.00379499
    Config      44  -0.06160203  0.00379481
Total percent printed            0.99697488
  
State    2  6.8979     CI coeff  CI percent
    Config       4  -0.70268644  0.49376823
    Config       5   0.70164675  0.49230816
    Config      28   0.04448942  0.00197931
    Config      29  -0.04442641  0.00197371
    Config      33   0.04738561  0.00224540
    Config      34  -0.04731372  0.00223859
    Config      35  -0.05230251  0.00273555
    Config      36   0.05222456  0.00272740
Total percent printed            0.99997635
  
State    3  7.0020     CI coeff  CI percent
    Config       2  -0.99140838  0.98289059
    Config       8  -0.06821645  0.00465348
    Config      47  -0.06452620  0.00416363
Total percent printed            0.99170770
  
State    4  7.0026     CI coeff  CI percent
    Config       3  -0.99140816  0.98289015
    Config       9  -0.06821736  0.00465361
    Config      48  -0.06452616  0.00416363
Total percent printed            0.99170738
  
State    5  7.2521     CI coeff  CI percent
    Config       4   0.69747870  0.48647654
    Config       5   0.69852444  0.48793639
    Config      12   0.06195862  0.00383887
    Config      25  -0.08907149  0.00793373
    Config      28  -0.04315296  0.00186218
    Config      29  -0.04322046  0.00186801
    Config      33  -0.04723456  0.00223110
    Config      34  -0.04730355  0.00223763
    Config      35   0.05217004  0.00272171
    Config      36   0.05224763  0.00272981
Total percent printed            0.99983597
  
State    6  7.2522     CI coeff  CI percent
    Config       6   0.69796026  0.48714853
    Config       7  -0.69797233  0.48716537
    Config      15   0.04403040  0.00193868
    Config      16  -0.04402430  0.00193814
    Config      26  -0.06316606  0.00398995
    Config      27   0.06316332  0.00398960
    Config      37  -0.04327556  0.00187277
    Config      38   0.04327569  0.00187279
    Config      43   0.07009211  0.00491290
    Config      44  -0.07009583  0.00491342
Total percent printed            0.99974216
  
State    7 11.2876     CI coeff  CI percent
    Config       2  -0.05126940  0.00262855
    Config       8   0.84544259  0.71477317
    Config      10   0.31311347  0.09804004
    Config      14  -0.04720091  0.00222793
    Config      17   0.40792096  0.16639951
    Config      21   0.08983756  0.00807079
    Config      42  -0.05298539  0.00280745
    Config      45   0.04998335  0.00249833
Total percent printed            0.99744577
  
State    8 11.2879     CI coeff  CI percent
    Config       3   0.05126315  0.00262791
    Config       9  -0.84542259  0.71473935
    Config      11  -0.31311485  0.09804091
    Config      13   0.04721993  0.00222972
    Config      18  -0.40796521  0.16643561
    Config      22   0.08981602  0.00806692
    Config      41   0.05298608  0.00280752
    Config      46  -0.04998123  0.00249812
Total percent printed            0.99744607
  
State    9 12.1457     CI coeff  CI percent
    Config       6  -0.64289148  0.41330946
    Config       7  -0.64287720  0.41329109
    Config      15   0.07578527  0.00574341
    Config      16   0.07574822  0.00573779
    Config      23  -0.35676923  0.12728428
    Config      26  -0.05173720  0.00267674
    Config      27  -0.05173802  0.00267682
    Config      30  -0.11618383  0.01349868
    Config      43  -0.05874336  0.00345078
    Config      44  -0.05874599  0.00345109
    Config      67   0.07519434  0.00565419
Total percent printed            0.99677433
  
State   10 13.7579     CI coeff  CI percent
    Config      11  -0.60746382  0.36901230
    Config      13  -0.52549189  0.27614173
    Config      18   0.50085815  0.25085889
    Config      22   0.32040154  0.10265715
Total percent printed            0.99867007
  
State   11 13.7579     CI coeff  CI percent
    Config      10  -0.60795021  0.36960346
    Config      14  -0.52505537  0.27568314
    Config      17   0.50082504  0.25082572
    Config      21  -0.32025583  0.10256380
Total percent printed            0.99867611
  
State   12 14.0230     CI coeff  CI percent
    Config       2  -0.06704726  0.00449533
    Config       8   0.34901394  0.12181073
    Config      10  -0.72607574  0.52718598
    Config      14   0.46201052  0.21345372
    Config      17  -0.19399246  0.03763308
    Config      21   0.30426779  0.09257889
Total percent printed            0.99715774
  
State   13 14.0231     CI coeff  CI percent
    Config       3   0.06704425  0.00449493
    Config       9  -0.34897710  0.12178501
    Config      11   0.72647552  0.52776667
    Config      13  -0.46184703  0.21330268
    Config      18   0.19347284  0.03743174
    Config      22   0.30393642  0.09237735
Total percent printed            0.99715839
  
State   14 14.3195     CI coeff  CI percent
    Config      12  -0.99440462  0.98884056
    Config      25  -0.05184537  0.00268794
    Config      28  -0.04844446  0.00234687
    Config      29  -0.04844747  0.00234716
Total percent printed            0.99622252
  
State   15 14.3195     CI coeff  CI percent
    Config      15   0.70360128  0.49505476
    Config      16  -0.70267587  0.49375338
    Config      37   0.04845041  0.00234744
    Config      38  -0.04841891  0.00234439
Total percent printed            0.99349997
  
State   16 14.7451     CI coeff  CI percent
    Config       9   0.18384112  0.03379756
    Config      11  -0.04503037  0.00202773
    Config      13  -0.70894995  0.50261003
    Config      18  -0.53170863  0.28271407
    Config      19  -0.06082608  0.00369981
    Config      22  -0.41008687  0.16817124
    Config      41  -0.06820289  0.00465163
Total percent printed            0.99767208
  
State   17 14.7453     CI coeff  CI percent
    Config       8   0.18372101  0.03375341
    Config      10  -0.04492854  0.00201857
    Config      14  -0.70916836  0.50291977
    Config      17  -0.53158253  0.28257998
    Config      20  -0.06082419  0.00369958
    Config      21   0.40994119  0.16805178
    Config      42  -0.06819595  0.00465069
Total percent printed            0.99767378
  
State   18 15.1237     CI coeff  CI percent
    Config       1   0.07741374  0.00599289
    Config       6   0.04108842  0.00168826
    Config       7   0.04104475  0.00168467
    Config      15   0.69498529  0.48300455
    Config      16   0.69592346  0.48430947
    Config      23   0.13887849  0.01928723
Total percent printed            0.99596706
  
State   19 17.6820     CI coeff  CI percent
    Config      13   0.04794826  0.00229904
    Config      19  -0.99117445  0.98242680
    Config      22   0.05384124  0.00289888
    Config      48   0.06031149  0.00363748
    Config      51   0.05469399  0.00299143
    Config      54   0.05652951  0.00319559
Total percent printed            0.99744921
  
State   20 17.6825     CI coeff  CI percent
    Config      14  -0.04794661  0.00229888
    Config      20   0.99117383  0.98242555
    Config      21   0.05384856  0.00289967
    Config      47  -0.06031629  0.00363805
    Config      52  -0.05469181  0.00299119
    Config      53  -0.05653192  0.00319586
Total percent printed            0.99744921
  
State   21 18.9140     CI coeff  CI percent
    Config       6  -0.18566639  0.03447201
    Config       7  -0.18564685  0.03446475
    Config      15  -0.05523881  0.00305133
    Config      16  -0.05525922  0.00305358
    Config      23   0.79565470  0.63306640
    Config      26  -0.27080581  0.07333579
    Config      27  -0.27068461  0.07327016
    Config      30  -0.30208748  0.09125685
    Config      31  -0.12432894  0.01545768
    Config      32  -0.12432515  0.01545674
    Config      37  -0.08148986  0.00664060
    Config      38  -0.08144056  0.00663256
    Config      43   0.04718636  0.00222655
    Config      44   0.04718232  0.00222617
    Config      67   0.06307297  0.00397820
Total percent printed            0.99858937
  
State   22 19.0460     CI coeff  CI percent
    Config      24   0.91527273  0.83772418
    Config      28  -0.28352631  0.08038717
    Config      29   0.28350446  0.08037478
Total percent printed            0.99848612
  
State   23 19.3168     CI coeff  CI percent
    Config       8  -0.31965927  0.10218205
    Config      17   0.48796389  0.23810876
    Config      20  -0.04083855  0.00166779
    Config      21   0.75798120  0.57453550
    Config      39  -0.25078532  0.06289328
    Config      45   0.08301781  0.00689196
    Config      47  -0.07580125  0.00574583
    Config      72  -0.07740636  0.00599174
Total percent printed            0.99801691
  
State   24 19.3170     CI coeff  CI percent
    Config       9  -0.31967681  0.10219327
    Config      18   0.48796428  0.23810913
    Config      19  -0.04082545  0.00166672
    Config      22  -0.75798178  0.57453638
    Config      40  -0.25076376  0.06288247
    Config      46   0.08301747  0.00689190
    Config      48  -0.07579799  0.00574534
    Config      73  -0.07740645  0.00599176
Total percent printed            0.99801696
  
State   25 19.9243     CI coeff  CI percent
    Config       6   0.07896885  0.00623608
    Config       7  -0.07905769  0.00625012
    Config      15  -0.04996405  0.00249641
    Config      16   0.04994276  0.00249428
    Config      26   0.63356267  0.40140166
    Config      27  -0.63333075  0.40110784
    Config      37   0.29825920  0.08895855
    Config      38  -0.29814848  0.08889252
Total percent printed            0.99783745
  
State   26 19.9243     CI coeff  CI percent
    Config       4   0.07880749  0.00621062
    Config       5   0.07880711  0.00621056
    Config      12  -0.07068159  0.00499589
    Config      25   0.89564473  0.80217948
    Config      28   0.29855003  0.08913212
    Config      29   0.29851239  0.08910965
    Config      63   0.04592529  0.00210913
Total percent printed            0.99994744
  
State   27 20.9096     CI coeff  CI percent
    Config       6  -0.10177477  0.01035810
    Config       7  -0.10173663  0.01035034
    Config      15  -0.05252958  0.00275936
    Config      16  -0.05256287  0.00276286
    Config      23   0.28976297  0.08396258
    Config      26   0.57044278  0.32540497
    Config      27   0.57073524  0.32573871
    Config      30  -0.19366704  0.03750692
    Config      31  -0.08979868  0.00806380
    Config      32  -0.08979475  0.00806310
    Config      37   0.29885386  0.08931363
    Config      38   0.29901840  0.08941200
Total percent printed            0.99369637
  
State   28 21.5672     CI coeff  CI percent
    Config       4   0.04221192  0.00178185
    Config       5  -0.04221793  0.00178235
    Config      24   0.40207422  0.16166368
    Config      28   0.64512311  0.41618383
    Config      29  -0.64512752  0.41618952
Total percent printed            0.99760122
  
State   29 22.7997     CI coeff  CI percent
    Config       6   0.15089865  0.02277040
    Config       7   0.15089330  0.02276879
    Config      23  -0.35359164  0.12502705
    Config      30  -0.78896656  0.62246824
    Config      31  -0.26666506  0.07111026
    Config      32  -0.26665503  0.07110490
    Config      37  -0.05281833  0.00278978
    Config      38  -0.05282709  0.00279070
    Config      43   0.14220682  0.02022278
    Config      44   0.14220654  0.02022270
    Config      60   0.05637893  0.00317858
    Config      61   0.05637476  0.00317811
    Config      67  -0.08099009  0.00655940
Total percent printed            0.99419169
  
State   30 24.6338     CI coeff  CI percent
    Config      25  -0.04426005  0.00195895
    Config      28   0.05741881  0.00329692
    Config      29   0.05760480  0.00331831
    Config      33   0.68304492  0.46655037
    Config      34   0.67819220  0.45994466
    Config      35   0.17416427  0.03033319
    Config      36   0.17450433  0.03045176
Total percent printed            0.99585417
  
State   31 24.6338     CI coeff  CI percent
    Config      31   0.65015228  0.42269799
    Config      32  -0.65003541  0.42254603
    Config      37   0.05898760  0.00347954
    Config      38  -0.05897886  0.00347851
    Config      43  -0.26604321  0.07077899
    Config      44   0.26607176  0.07079418
Total percent printed            0.99377524
  
State   32 24.7437     CI coeff  CI percent
    Config       4   0.05118474  0.00261988
    Config       5  -0.05140177  0.00264214
    Config      33   0.69729225  0.48621648
    Config      34  -0.70194475  0.49272643
    Config      35  -0.07811471  0.00610191
    Config      36   0.07672268  0.00588637
Total percent printed            0.99619321
  
State   33 24.8882     CI coeff  CI percent
    Config      23  -0.05306683  0.00281609
    Config      30   0.39008396  0.15216550
    Config      31  -0.63344032  0.40124664
    Config      32  -0.63354553  0.40137994
    Config      43  -0.13876206  0.01925491
    Config      44  -0.13866683  0.01922849
Total percent printed            0.99609156
  
State   34 25.6287     CI coeff  CI percent
    Config       4  -0.05900435  0.00348151
    Config       5  -0.05843153  0.00341424
    Config      25   0.22234822  0.04943873
    Config      28  -0.32009217  0.10245900
    Config      29  -0.32032070  0.10260535
    Config      33  -0.11047463  0.01220464
    Config      34  -0.11165718  0.01246732
    Config      35   0.59652828  0.35584599
    Config      36   0.58756830  0.34523650
    Config      59   0.09973575  0.00994722
    Config      75   0.04230097  0.00178937
Total percent printed            0.99888989
  
State   35 25.6292     CI coeff  CI percent
    Config       6  -0.05807478  0.00337268
    Config       7   0.05807739  0.00337298
    Config      26   0.16342130  0.02670652
    Config      27  -0.16342499  0.02670773
    Config      31   0.26258664  0.06895175
    Config      32  -0.26263011  0.06897458
    Config      37  -0.33390990  0.11149582
    Config      38   0.33388191  0.11147713
    Config      43   0.53178044  0.28279043
    Config      44  -0.53179604  0.28280702
    Config      60  -0.07187562  0.00516610
    Config      61   0.07186745  0.00516493
Total percent printed            0.99698768
  
State   36 25.6770     CI coeff  CI percent
    Config       4  -0.04528831  0.00205103
    Config       5   0.04601439  0.00211732
    Config      33   0.07994785  0.00639166
    Config      34  -0.07882221  0.00621294
    Config      35   0.69598343  0.48439294
    Config      36  -0.70337000  0.49472935
    Config      62  -0.04472964  0.00200074
Total percent printed            0.99789599
  
State   37 26.1711     CI coeff  CI percent
    Config      25   0.35998319  0.12958790
    Config      28  -0.54105673  0.29274238
    Config      29  -0.54108991  0.29277829
    Config      33   0.14466909  0.02092915
    Config      34   0.14471143  0.02094140
    Config      35  -0.33843319  0.11453702
    Config      36  -0.33897938  0.11490702
    Config      59   0.07287604  0.00531092
    Config      63   0.04085787  0.00166937
    Config      75   0.06732776  0.00453303
Total percent printed            0.99793647
  
State   38 26.1714     CI coeff  CI percent
    Config      26  -0.25015218  0.06257611
    Config      27   0.25015493  0.06257749
    Config      31   0.09136582  0.00834771
    Config      32  -0.09137821  0.00834998
    Config      37   0.53276915  0.28384297
    Config      38  -0.53272958  0.28380081
    Config      43   0.37233218  0.13863125
    Config      44  -0.37234071  0.13863760
    Config      60   0.04965500  0.00246562
    Config      61  -0.04964776  0.00246490
    Config      76  -0.04682802  0.00219286
    Config      77   0.04682356  0.00219245
Total percent printed            0.99607975
  
State   39 26.2659     CI coeff  CI percent
    Config       8  -0.13794491  0.01902880
    Config      17   0.10188866  0.01038130
    Config      21   0.12009477  0.01442275
    Config      39   0.85826811  0.73662414
    Config      42  -0.37234130  0.13863804
    Config      45   0.24569856  0.06036778
    Config      47   0.07640643  0.00583794
    Config      49   0.05414195  0.00293135
    Config      53   0.05435528  0.00295450
    Config      70   0.04984113  0.00248414
    Config      72  -0.05965237  0.00355840
Total percent printed            0.99722915
  
State   40 26.2664     CI coeff  CI percent
    Config       9   0.13794139  0.01902783
    Config      18  -0.10187163  0.01037783
    Config      22   0.12005175  0.01441242
    Config      40  -0.85819035  0.73649067
    Config      41   0.37255659  0.13879841
    Config      46  -0.24567593  0.06035666
    Config      48  -0.07641556  0.00583934
    Config      50  -0.05413693  0.00293081
    Config      54  -0.05434935  0.00295385
    Config      71  -0.04983787  0.00248381
    Config      73   0.05964450  0.00355747
Total percent printed            0.99722910
  
State   41 27.0434     CI coeff  CI percent
    Config       6  -0.07171364  0.00514285
    Config       7  -0.07171170  0.00514257
    Config      23   0.04433509  0.00196560
    Config      26   0.30334028  0.09201533
    Config      27   0.30337657  0.09203734
    Config      37  -0.62511585  0.39076983
    Config      38  -0.62514683  0.39080856
    Config      60  -0.08489141  0.00720655
    Config      61  -0.08489005  0.00720632
    Config      76   0.05615609  0.00315351
    Config      77   0.05615755  0.00315367
Total percent printed            0.99860212
  
State   42 27.5936     CI coeff  CI percent
    Config      13   0.04031308  0.00162514
    Config      22   0.11249700  0.01265557
    Config      40  -0.34231645  0.11718055
    Config      41  -0.92173282  0.84959139
    Config      46  -0.11007234  0.01211592
Total percent printed            0.99316859
  
State   43 27.5937     CI coeff  CI percent
    Config      14   0.04031690  0.00162545
    Config      21  -0.11247418  0.01265044
    Config      39  -0.34211390  0.11704192
    Config      42  -0.92182006  0.84975223
    Config      45  -0.11001573  0.01210346
Total percent printed            0.99317350
  
State   44 30.8094     CI coeff  CI percent
    Config      17   0.08743972  0.00764570
    Config      21   0.11601021  0.01345837
    Config      39   0.24829248  0.06164916
    Config      45  -0.89220533  0.79603035
    Config      47   0.04340207  0.00188374
    Config      49  -0.25340307  0.06421312
    Config      52   0.04562890  0.00208200
    Config      53  -0.17123565  0.02932165
    Config      55  -0.11206156  0.01255779
    Config      57  -0.07858696  0.00617591
    Config      72  -0.06151690  0.00378433
Total percent printed            0.99880212
  
State   45 30.8099     CI coeff  CI percent
    Config      18   0.08743739  0.00764530
    Config      22  -0.11600171  0.01345640
    Config      40   0.24829924  0.06165251
    Config      46  -0.89219014  0.79600325
    Config      48   0.04339089  0.00188277
    Config      50  -0.25341694  0.06422015
    Config      51   0.04565894  0.00208474
    Config      54  -0.17127555  0.02933531
    Config      56  -0.11207778  0.01256143
    Config      58  -0.07858742  0.00617598
    Config      73  -0.06151580  0.00378419
Total percent printed            0.99880203
  
State   46 31.1722     CI coeff  CI percent
    Config       8   0.04206862  0.00176977
    Config      20  -0.07058128  0.00498172
    Config      39   0.09146901  0.00836658
    Config      47  -0.89152030  0.79480844
    Config      53  -0.25698170  0.06603960
    Config      55   0.34213666  0.11705750
    Config      70  -0.04801743  0.00230567
Total percent printed            0.99532928
  
State   47 31.1727     CI coeff  CI percent
    Config       9  -0.04206578  0.00176953
    Config      19   0.07057797  0.00498125
    Config      40  -0.09147407  0.00836751
    Config      48   0.89151272  0.79479493
    Config      54   0.25702372  0.06606119
    Config      56  -0.34212466  0.11704928
    Config      71   0.04801632  0.00230557
Total percent printed            0.99532926
  
State   48 32.7822     CI coeff  CI percent
    Config      45  -0.33091744  0.10950635
    Config      49   0.74139353  0.54966437
    Config      52  -0.28375082  0.08051453
    Config      53   0.41999980  0.17639983
    Config      55   0.28166724  0.07933643
Total percent printed            0.99542152
  
State   49 32.7825     CI coeff  CI percent
    Config      46   0.33094143  0.10952223
    Config      50  -0.74094962  0.54900633
    Config      51   0.28426386  0.08080594
    Config      54  -0.42026205  0.17662019
    Config      56  -0.28189388  0.07946416
Total percent printed            0.99541886
  
State   50 33.0638     CI coeff  CI percent
    Config       1   0.07933365  0.00629383
    Config       6  -0.07185531  0.00516319
    Config       7  -0.07185658  0.00516337
    Config      30   0.27455851  0.07538237
    Config      31  -0.05943604  0.00353264
    Config      32  -0.05943972  0.00353308
    Config      43   0.66494359  0.44214997
    Config      44   0.66493456  0.44213797
    Config      60   0.04464319  0.00199301
    Config      61   0.04463989  0.00199272
    Config      64  -0.06273553  0.00393575
    Config      65  -0.06273500  0.00393568
    Config      67   0.05657404  0.00320062
Total percent printed            0.99841420
  
State   51 33.1398     CI coeff  CI percent
    Config      50  -0.60762041  0.36920257
    Config      51  -0.50577870  0.25581209
    Config      54   0.48484604  0.23507568
    Config      56   0.37239390  0.13867721
Total percent printed            0.99876756
  
State   52 33.1398     CI coeff  CI percent
    Config      49   0.60711127  0.36858409
    Config      52   0.50561744  0.25564900
    Config      53  -0.48538605  0.23559962
    Config      55  -0.37274438  0.13893837
Total percent printed            0.99877108
  
State   53 34.1075     CI coeff  CI percent
    Config      19  -0.06962720  0.00484795
    Config      46   0.06492438  0.00421517
    Config      50   0.10587658  0.01120985
    Config      51  -0.80938971  0.65511170
    Config      54  -0.46559562  0.21677928
    Config      56  -0.32191136  0.10362692
    Config      68   0.04813640  0.00231711
Total percent printed            0.99810799
  
State   54 34.1080     CI coeff  CI percent
    Config      20  -0.06962695  0.00484791
    Config      45   0.06486984  0.00420810
    Config      49   0.10572482  0.01117774
    Config      52  -0.80967288  0.65557017
    Config      53  -0.46529947  0.21650360
    Config      55  -0.32168835  0.10348340
    Config      69   0.04813739  0.00231721
Total percent printed            0.99810812
  
State   55 36.6594     CI coeff  CI percent
    Config      39  -0.04757347  0.00226323
    Config      45   0.07187985  0.00516671
    Config      53   0.04240105  0.00179785
    Config      55  -0.06618288  0.00438017
    Config      57  -0.98389659  0.96805250
    Config      69   0.06490532  0.00421270
    Config      70   0.10489537  0.01100304
Total percent printed            0.99687621
  
State   56 36.6598     CI coeff  CI percent
    Config      40   0.04757378  0.00226326
    Config      46  -0.07188138  0.00516693
    Config      54  -0.04240308  0.00179802
    Config      56   0.06618960  0.00438106
    Config      58   0.98389606  0.96805146
    Config      68  -0.06490817  0.00421307
    Config      71  -0.10489248  0.01100243
Total percent printed            0.99687625
  
State   57 38.7997     CI coeff  CI percent
    Config      25   0.04988831  0.00248884
    Config      28  -0.07299455  0.00532820
    Config      29  -0.07299420  0.00532815
    Config      59  -0.98826411  0.97666595
    Config      63  -0.07855418  0.00617076
Total percent printed            0.99598191
  
State   58 38.7997     CI coeff  CI percent
    Config      37   0.07307211  0.00533953
    Config      38  -0.07299203  0.00532784
    Config      60  -0.69913703  0.48879259
    Config      61   0.69845644  0.48784139
    Config      64  -0.05560292  0.00309169
    Config      65   0.05554502  0.00308525
Total percent printed            0.99347829
  
State   59 39.0147     CI coeff  CI percent
    Config      62  -0.99526401  0.99055046
    Config      66   0.05313315  0.00282313
    Config      74  -0.05422666  0.00294053
Total percent printed            0.99631412
  
State   60 39.6584     CI coeff  CI percent
    Config      30  -0.06381383  0.00407221
    Config      37   0.07448372  0.00554782
    Config      38   0.07454940  0.00555761
    Config      43   0.05208316  0.00271266
    Config      44   0.05205045  0.00270925
    Config      60  -0.69425784  0.48199395
    Config      61  -0.69494356  0.48294655
    Config      64  -0.06514871  0.00424435
    Config      65  -0.06520973  0.00425231
Total percent printed            0.99403672
  
State   61 39.8004     CI coeff  CI percent
    Config       2   0.07363271  0.00542178
    Config      39   0.04654135  0.00216610
    Config      47  -0.42280933  0.17876773
    Config      53   0.51537460  0.26561098
    Config      55  -0.73193890  0.53573456
    Config      57   0.07422766  0.00550975
    Config      69   0.05802738  0.00336718
Total percent printed            0.99657806
  
State   62 39.8007     CI coeff  CI percent
    Config       3   0.07363391  0.00542195
    Config      40   0.04655246  0.00216713
    Config      48  -0.42282315  0.17877942
    Config      54   0.51536787  0.26560404
    Config      56  -0.73193432  0.53572784
    Config      58   0.07423380  0.00551066
    Config      68   0.05802696  0.00336713
Total percent printed            0.99657817
  
State   63 42.3505     CI coeff  CI percent
    Config      25   0.04777351  0.00228231
    Config      59   0.07669363  0.00588191
    Config      63  -0.99366593  0.98737198
Total percent printed            0.99553620
  
State   64 42.3505     CI coeff  CI percent
    Config      43   0.04025662  0.00162060
    Config      44  -0.04029149  0.00162340
    Config      60   0.05426038  0.00294419
    Config      61  -0.05423578  0.00294152
    Config      64  -0.70280173  0.49393027
    Config      65   0.70244098  0.49342334
Total percent printed            0.99648332
  
State   65 43.1300     CI coeff  CI percent
    Config      43  -0.06614464  0.00437511
    Config      44  -0.06612335  0.00437230
    Config      60   0.06053664  0.00366468
    Config      61   0.06057098  0.00366884
    Config      64  -0.69905937  0.48868400
    Config      65  -0.69942081  0.48918946
Total percent printed            0.99395440
  
State   66 44.0285     CI coeff  CI percent
    Config      62   0.05333752  0.00284489
    Config      66   0.99621875  0.99245180
    Config      74   0.04563579  0.00208263
Total percent printed            0.99737931
  
State   67 50.7059     CI coeff  CI percent
    Config       6   0.08135245  0.00661822
    Config       7   0.08135095  0.00661798
    Config      23  -0.05657018  0.00320018
    Config      30  -0.05793100  0.00335600
    Config      67   0.98527764  0.97077203
    Config      76  -0.05696778  0.00324533
    Config      77  -0.05696419  0.00324492
Total percent printed            0.99705466
  
State   68 50.9538     CI coeff  CI percent
    Config      56   0.06978582  0.00487006
    Config      58   0.06554445  0.00429608
    Config      68   0.99260178  0.98525829
    Config      71   0.04113702  0.00169225
Total percent printed            0.99611668
  
State   69 50.9538     CI coeff  CI percent
    Config      55  -0.06978594  0.00487008
    Config      57  -0.06554364  0.00429597
    Config      69  -0.99260130  0.98525735
    Config      70  -0.04115075  0.00169338
Total percent printed            0.99611678
  
State   70 52.6680     CI coeff  CI percent
    Config      39   0.04115442  0.00169369
    Config      47   0.05379953  0.00289439
    Config      57  -0.10262786  0.01053248
    Config      69   0.04818787  0.00232207
    Config      70  -0.99036368  0.98082022
Total percent printed            0.99826285
  
State   71 52.6685     CI coeff  CI percent
    Config      40   0.04115486  0.00169372
    Config      48   0.05379906  0.00289434
    Config      58  -0.10262577  0.01053205
    Config      68   0.04817421  0.00232075
    Config      71  -0.99036456  0.98082197
Total percent printed            0.99826283
  
State   72 58.0703     CI coeff  CI percent
    Config      17  -0.05609912  0.00314711
    Config      21  -0.07595930  0.00576982
    Config      39  -0.05644718  0.00318628
    Config      72  -0.99205673  0.98417655
Total percent printed            0.99627976
  
State   73 58.0707     CI coeff  CI percent
    Config      18   0.05609950  0.00314715
    Config      22  -0.07595700  0.00576947
    Config      40   0.05644762  0.00318633
    Config      73   0.99205688  0.98417686
Total percent printed            0.99627981
  
State   74 60.9065     CI coeff  CI percent
    Config      62  -0.05689979  0.00323759
    Config      66  -0.04253115  0.00180890
    Config      74   0.99700995  0.99402884
Total percent printed            0.99907533
  
State   75 65.2131     CI coeff  CI percent
    Config      37  -0.05167954  0.00267077
    Config      38   0.05163518  0.00266619
    Config      76  -0.70431345  0.49605743
    Config      77   0.70373981  0.49524972
Total percent printed            0.99664412
  
State   76 65.2131     CI coeff  CI percent
    Config      28   0.05164791  0.00266751
    Config      29   0.05164701  0.00266741
    Config      75   0.99564520  0.99130937
Total percent printed            0.99664429
  
State   77 66.0545     CI coeff  CI percent
    Config      37   0.05172351  0.00267532
    Config      38   0.05176383  0.00267949
    Config      67   0.08062337  0.00650013
    Config      76   0.70129300  0.49181187
    Config      77   0.70186916  0.49262032
Total percent printed            0.99628713
  

 -------------------------------------------------------------------------------
 INDO MRCI C.A.S.=(3,1) EPS=20.0
 Carbon Monoxide
 INDO


     NO PARAMETERS MARKED FOR OPTIMIZATION, SO 1SCF WAS USED  
     SCF FIELD WAS ACHIEVED                                   


                              INDO CALCULATION
                                                       MOPAC2016 (Version: 20.173L)
                                                       Mon Jun 29 13:00:58 2020




          FINAL HEAT OF FORMATION =     -10433.10929 KCAL/MOL =  -43652.12929 KJ/MOL
          VAN DER WAALS AREA      =         57.92 SQUARE ANGSTROMS


          TOTAL ENERGY            =       -462.41603 EV
          ELECTRONIC ENERGY       =       -295.54808 EV  POINT GROUP:     C*v 
          CORE-CORE REPULSION     =       -166.86795 EV

          DIELECTRIC ENERGY       =         -0.07377 EV
          COSMO AREA              =         57.92 SQUARE ANGSTROMS
          COSMO VOLUME            =         40.40 CUBIC ANGSTROMS

          IONIZATION POTENTIAL    =         14.510555 EV
          HOMO LUMO ENERGIES (EV) =        -14.511  0.109
          NO. OF FILLED LEVELS    =          5
          MOLECULAR WEIGHT        =         28.0104

          MOLECULAR DIMENSIONS (Angstroms)

            Atom       Atom       Distance
            O     2    C     1     1.17300
            O     2    C     1     0.00000
            C     1    O     2     0.00000


          SCF CALCULATIONS        =          2
 
          WALL-CLOCK TIME         =          0.125 SECONDS
          COMPUTATION TIME        =          0.059 SECONDS




   ATOM   CHEMICAL          X               Y               Z
  NUMBER   SYMBOL      (ANGSTROMS)     (ANGSTROMS)     (ANGSTROMS)
 
     1       C          0.00000000      0.00000000      0.00000000   
     2       O          1.17300000      0.00000000      0.00000000   

                             CARTESIAN COORDINATES

   1    C        0.000000000     0.000000000     0.000000000
   2    O        1.173000000     0.000000000     0.000000000


           Empirical Formula: C O  =     2 atoms



      MOLECULAR POINT GROUP   :   C*v 


                  EIGENVALUES  
 -43.14537 -19.34705 -14.87338 -14.87242 -14.51055   0.10948   0.11027  10.45159


              NET ATOMIC CHARGES AND DIPOLE CONTRIBUTIONS

  ATOM NO.   TYPE          CHARGE      No. of ELECS.   s-Pop       p-Pop       
    1          C           0.266566        3.7334     1.80694     1.92649
    2          O          -0.266566        6.2666     1.79552     4.47105
 DIPOLE           X         Y         Z       TOTAL
 POINT-CHG.    -1.502     0.000     0.000     1.502
 HYBRID         0.837    -0.000    -0.000     0.837
 SUM           -0.664    -0.000    -0.000     0.664


          ATOMIC ORBITAL ELECTRON POPULATIONS

     Atom    s        px        py        pz   
    1  C   1.80694   1.00749   0.45951   0.45949
    2  O   1.79552   1.39005   1.54049   1.54051

 **********************
 *                    *
 * JOB ENDED NORMALLY *
 *                    *
 **********************



 TOTAL JOB TIME:             0.21 SECONDS

 == MOPAC DONE ==


          MOPAC Job: "co_mrci_solv.mop" ended normally on Jun 29, 2020, at 13:00.

