 *******************************************************************************
 ** Site#:    0         For non-commercial use only    Version 20.173L 64BITS **
 *******************************************************************************
 ** Cite this program as: MOPAC2016, Version: 20.173L, James J. P. Stewart,   **
 ** Stewart Computational Chemistry, web-site: HTTP://OpenMOPAC.net.          **
 *******************************************************************************
 **                                                                           **
 **                                MOPAC2016                                  **
 **                                                                           **
 *******************************************************************************

                              INDO CALCULATION RESULTS

 *******************************************************************************
 *  CALCULATION DONE:                                Mon Jun 29 13:00:58 2020  *
 *  INDO       - The INDO Hamiltonian to be used
 *  MRCI       -  Use multi-reference CI (specify ref dets using C.A.S.)
 * C.A.S.=(N,M)-  1 DOUBLY FILLED LEVELS USED IN A
 *             CAS REF DET GENERATION INVOLVING  3 M.O.'S
 *  T=         - A TIME OF 172800.0 SECONDS REQUESTED
 *  DUMP=N     - RESTART FILE WRITTEN EVERY 7200.0 SECONDS REQUESTED
 *******************************************************************************
INDO MRCI C.A.S.=(3,1)
 Carbon Monoxide
 INDO
   ATOM   CHEMICAL          X               Y               Z
  NUMBER   SYMBOL      (ANGSTROMS)     (ANGSTROMS)     (ANGSTROMS)
 
     1       C          0.00000000      0.00000000      0.00000000   
     2       O          1.17300000      0.00000000      0.00000000   
 


          CARTESIAN COORDINATES 

    NO.       ATOM           X           Y           Z

     1         C          0.0000      0.0000      0.0000
     2         O          1.1730      0.0000      0.0000

           Empirical Formula: C O  =     2 atoms



      MOLECULAR POINT GROUP   :   C*v 


      RHF CALCULATION, NO. OF DOUBLY OCCUPIED LEVELS = 5

 WARNING: INDO only performs single-point calculations

 Summary of symmetry occupancy in each shell:

 SHELL     
    1    5
    v    3
 TOTAL   8




    ROOT NO.    1           2           3           4           5           6

           -43.05348   -19.27363   -14.77497   -14.77497   -14.49719     0.09377
  
  
  S  C   1   0.44278    -0.58730    -0.00000    -0.00000    -0.60235    -0.00000
 PX  C   1   0.36287     0.01883     0.00000    -0.00000     0.61067     0.00000
 PY  C   1  -0.00000     0.00000     0.48831     0.00000    -0.00000     0.87267
 PZ  C   1  -0.00000     0.00000     0.00000     0.48831    -0.00000     0.00000
  
  S  O   2   0.77773     0.52976    -0.00000     0.00000    -0.10965    -0.00000
 PX  O   2  -0.25963     0.61161    -0.00000    -0.00000    -0.50223    -0.00000
 PY  O   2   0.00000    -0.00000     0.87267     0.00000    -0.00000    -0.48831
 PZ  O   2   0.00000     0.00000     0.00000     0.87267     0.00000     0.00000




    ROOT NO.    7           8

             0.09377    10.49943
  
  
  S  C   1  -0.00000     0.31015
 PX  C   1  -0.00000     0.70360
 PY  C   1   0.00000     0.00000
 PZ  C   1   0.87267     0.00000
  
  S  O   2   0.00000    -0.32011
 PX  O   2  -0.00000     0.55343
 PY  O   2   0.00000    -0.00000
 PZ  O   2  -0.48831     0.00000


 Reference determinate nber   1 is ALPHA 1 -   5
 CAS excitations amongst orbitals:   5   6   7
 SINGLE excitations FROM orbs   1 to   5 INTO orbs   6 to   8
 

 CI excitations=   77:        = 77
 The lowest   77 spin-adapted configurations of multiplicity=  1
     sym   eV   cm**-1 -dets- dipole oscilator X FRAG ....Excitations named from first reference determinate
                       tot  #  Debye  strength
 
   1     -0.000      0.  1  1  0.4607 0.000000 0  0 (            )->(               )
   2      6.886  55538.  2  1  1.7984 0.063238 1  1 (   5        )->(   7           )
   3      6.886  55538.  2  1  1.7984 0.063238 1  1 (   5        )->(   6           )
   4      6.938  55958.  2  1  2.4865 0.000000 1  1 (   4        )->(   6           )
   5      6.938  55958.  2  1  2.4865 0.000000 1  1 (   3        )->(   7           )
   6     10.547  85067.  2  1  2.4865 0.461103 1  1 (   4        )->(   7           )
   7     10.547  85067.  2  1  2.4865 0.461103 1  1 (   3        )->(   6           )
   8     12.502 100837.  2  1  2.8796 0.234997 1  1 (   2        )->(   6           )
   9     12.502 100837.  2  1  2.8796 0.234997 1  1 (   2        )->(   7           )
  10     13.233 106730.  6  1  1.1487 0.000000 2  1 (   4   5    )->(   6   7       )
  11     13.233 106730.  6  1  1.1487 0.000000 2  1 (   3   5    )->(   6   7       )
  12     13.933 112378.  2  1  3.1362 0.000000 2  1 (   5   5    )->(   6   7       )
  13     13.958 112581.  2  1  1.1487 0.000000 2  1 (   3   5    )->(   7   7       )
  14     13.958 112581.  2  1  1.1487 0.000000 2  1 (   4   5    )->(   6   6       )
  15     14.294 115290.  1  1  3.1362 0.000000 2  0 (   5   5    )->(   6   6       )
  16     14.294 115290.  1  1  3.1362 0.000000 2  0 (   5   5    )->(   7   7       )
  17     15.017 121118.  2  1  1.1487 0.000000 2  1 (   4   5    )->(   7   7       )
  18     15.017 121118.  2  1  1.1487 0.000000 2  1 (   3   5    )->(   6   6       )
  19     17.440 140662.  2  1  1.1130 0.001559 1  1 (   4        )->(   8           )
  20     17.440 140662.  2  1  1.1130 0.001559 1  1 (   3        )->(   8           )
  21     17.665 142475.  6  2  1.1487 0.000000 2  1 (   3   5    )->(   6   7       )
  22     17.665 142475.  6  2  1.1487 0.000000 2  1 (   4   5    )->(   6   7       )
  23     18.450 148811.  2  1  3.1719 0.421756 1  1 (   5        )->(   8           )
  24     18.999 153235.  6  1  1.5418 0.000000 2  1 (   2   5    )->(   6   7       )
  25     20.745 167318.  6  2  1.5418 0.000000 2  1 (   2   5    )->(   6   7       )
  26     21.106 170230.  2  1  1.5418 0.000000 2  1 (   2   5    )->(   7   7       )
  27     21.106 170230.  2  1  1.5418 0.000000 2  1 (   2   5    )->(   6   6       )
  28     22.724 183285.  2  1  0.1891 0.000000 3  1 (   4   5   5)->(   6   7   7   )
  29     22.724 183285.  2  1  0.1891 0.000000 3  1 (   3   5   5)->(   6   6   7   )
  30     23.037 185804.  2  1  1.5061 0.006239 1  1 (   2        )->(   8           )
  31     24.161 194868.  6  1  0.2248 0.000000 2  1 (   4   5    )->(   7   8       )
  32     24.161 194868.  6  1  0.2248 0.000000 2  1 (   3   5    )->(   6   8       )
  33     24.322 196171.  6  1  0.2248 0.000000 2  1 (   4   5    )->(   6   8       )
  34     24.322 196171.  6  1  0.2248 0.000000 2  1 (   3   5    )->(   7   8       )
  35     25.188 203152.  6  2  0.2248 0.000000 2  1 (   3   5    )->(   7   8       )
  36     25.188 203152.  6  2  0.2248 0.000000 2  1 (   4   5    )->(   6   8       )
  37     25.275 203858.  2  1  0.1891 0.000000 3  1 (   3   5   5)->(   6   7   7   )
  38     25.275 203858.  2  1  0.1891 0.000000 3  1 (   4   5   5)->(   6   6   7   )
  39     26.046 210075.  2  1  4.5097 0.000000 2  1 (   5   5    )->(   6   8       )
  40     26.046 210075.  2  1  4.5097 0.000000 2  1 (   5   5    )->(   7   8       )
  41     26.891 216889.  2  1  0.2040 0.000000 3  1 (   2   5   5)->(   6   7   7   )
  42     26.891 216889.  2  1  0.2040 0.000000 3  1 (   2   5   5)->(   6   6   7   )
  43     28.461 229553.  6  2  0.2248 0.000000 2  1 (   3   5    )->(   6   8       )
  44     28.461 229553.  6  2  0.2248 0.000000 2  1 (   4   5    )->(   7   8       )
  45     30.199 243568.  6  1  0.1684 0.000000 2  1 (   2   5    )->(   7   8       )
  46     30.199 243568.  6  1  0.1684 0.000000 2  1 (   2   5    )->(   6   8       )
  47     32.244 260064.  6  2  0.1684 0.000000 2  1 (   2   5    )->(   6   8       )
  48     32.244 260064.  6  2  0.1684 0.000000 2  1 (   2   5    )->(   7   8       )
  49     32.316 260649.  6  1  1.5625 0.000000 3  1 (   4   5   5)->(   6   7   8   )
  50     32.316 260649.  6  1  1.5625 0.000000 3  1 (   3   5   5)->(   6   7   8   )
  51     33.282 268442.  2  1  1.5625 0.000000 3  1 (   4   5   5)->(   6   6   8   )
  52     33.282 268442.  2  1  1.5625 0.000000 3  1 (   3   5   5)->(   7   7   8   )
  53     34.341 276979.  2  1  1.5625 0.000000 3  1 (   4   5   5)->(   7   7   8   )
  54     34.341 276979.  2  1  1.5625 0.000000 3  1 (   3   5   5)->(   6   6   8   )
  55     36.238 292279.  6  2  1.5625 0.000000 3  1 (   3   5   5)->(   6   7   8   )
  56     36.238 292279.  6  2  1.5625 0.000000 3  1 (   4   5   5)->(   6   7   8   )
  57     36.386 293472.  2  1  2.0577 0.018648 1  1 (   1        )->(   7           )
  58     36.386 293472.  2  1  2.0577 0.018648 1  1 (   1        )->(   6           )
  59     38.179 307934.  6  1  1.1694 0.000000 3  1 (   2   5   5)->(   6   7   8   )
  60     38.540 310846.  2  1  1.1694 0.000000 3  1 (   2   5   5)->(   6   6   8   )
  61     38.540 310846.  2  1  1.1694 0.000000 3  1 (   2   5   5)->(   7   7   8   )
  62     38.688 312041.  6  2  1.1694 0.000000 3  1 (   2   5   5)->(   6   7   8   )
  63     41.800 337137.  6  1  0.7199 0.000000 2  1 (   1   5    )->(   6   7       )
  64     42.161 340049.  2  1  0.7199 0.000000 2  1 (   1   5    )->(   6   6       )
  65     42.161 340049.  2  1  0.7199 0.000000 2  1 (   1   5    )->(   7   7       )
  66     43.538 351157.  6  2  0.7199 0.000000 2  1 (   1   5    )->(   6   7       )
  67     49.741 401190.  2  1  0.6842 0.068676 1  1 (   1        )->(   8           )
  68     50.343 406046.  2  1  0.6179 0.000000 3  1 (   1   5   5)->(   6   6   7   )
  69     50.343 406046.  2  1  0.6179 0.000000 3  1 (   1   5   5)->(   6   7   7   )
  70     51.944 418958.  6  1  0.6536 0.000000 2  1 (   1   5    )->(   7   8       )
  71     51.944 418958.  6  1  0.6536 0.000000 2  1 (   1   5    )->(   6   8       )
  72     57.129 460778.  6  2  0.6536 0.000000 2  1 (   1   5    )->(   7   8       )
  73     57.129 460778.  6  2  0.6536 0.000000 2  1 (   1   5    )->(   6   8       )
  74     60.357 486810.  6  1  1.9913 0.000000 3  1 (   1   5   5)->(   6   7   8   )
  75     64.452 519842.  6  2  1.9913 0.000000 3  1 (   1   5   5)->(   6   7   8   )
  76     64.813 522753.  2  1  1.9913 0.000000 3  1 (   1   5   5)->(   6   6   8   )
  77     64.813 522753.  2  1  1.9913 0.000000 3  1 (   1   5   5)->(   7   7   8   )

 Depression of ground-state after CI=      -3359. cm**-1 Energy=  -462.7677577 eV
 Dipole moment= -0.492255  0.000000  0.000000 tot=  0.492255 Debyes


  CI trans.  energy frequency wavelength oscillator ---------polarization---------    dipole   ------components----- 
 st.  symm.    eV      cm-1       nm      strength       x          y         z       moment     x       y       z 

   2      6.8796771    55488.    180.22  0.000000                                   1.974632   1.975  -0.000  -0.000
   3      6.9767087    56271.    177.71  0.041304   0.000000   0.024445   0.999701  1.500750  -1.501   0.000  -0.000
   4      6.9767087    56271.    177.71  0.041304   0.000000   0.999701  -0.024445  1.500750  -1.501  -0.000   0.000
   5      7.2436641    58424.    171.16  0.000000                                   1.917459   1.917   0.000  -0.000
   6      7.2436641    58424.    171.16  0.000000                                   1.917459   1.917   0.000   0.000
   7     11.2407833    90663.    110.30  0.166298   0.000000   1.000000  -0.000416  1.907712   1.908   0.000  -0.000
   8     11.2407833    90663.    110.30  0.166298   0.000000   0.000416   1.000000  1.907712   1.908   0.000  -0.000
   9     12.2280513    98626.    101.39  0.530208   1.000000  -0.000000   0.000000  1.667871   1.668  -0.000  -0.000
  10     13.7420791   110838.     90.22  0.000000                                   1.026203   1.026  -0.000   0.000
  11     13.7420791   110838.     90.22  0.000000                                   1.026203   1.026  -0.000  -0.000
  12     13.9928728   112860.     88.61  0.043517  -0.000000   0.002893  -0.999996  1.123562   1.124  -0.000  -0.000
  13     13.9928728   112860.     88.61  0.043517   0.000000  -0.999996  -0.002893  1.123562   1.124  -0.000   0.000
  14     14.2941225   115290.     86.74  0.000000                                   3.108583  -3.109   0.000   0.000
  15     14.2941225   115290.     86.74  0.000000                                   3.108583  -3.109   0.000  -0.000
  16     14.7319771   118822.     84.16  0.005498  -0.000000   1.000000  -0.000465  1.060017   1.060  -0.000   0.000
  17     14.7319771   118822.     84.16  0.005498   0.000000  -0.000465  -1.000000  1.060017   1.060   0.000  -0.000
  18     15.0901141   121710.     82.16  0.010080  -1.000000  -0.000000  -0.000000  2.957950  -2.958   0.000   0.000
  19     17.6907019   142685.     70.08  0.002037  -0.000000  -0.004720   0.999989  1.068054   1.068   0.000   0.000
  20     17.6907019   142685.     70.08  0.002037   0.000000   0.999989   0.004720  1.068054   1.068  -0.000  -0.000
  21     18.9602526   152925.     65.39  0.552155  -1.000000   0.000000   0.000000  2.037359  -2.037   0.000   0.000
  22     18.9744368   153040.     65.34  0.000000                                   1.169969   1.170   0.000   0.000
  23     19.4013821   156483.     63.90  0.028050   0.000000   0.009221   0.999957  1.187788   1.188  -0.000   0.000
  24     19.4013821   156483.     63.90  0.028050  -0.000000  -0.999957   0.009221  1.187788   1.188   0.000  -0.000
  25     19.9555786   160953.     62.13  0.000000                                   0.665967   0.666   0.000   0.000
  26     19.9555786   160953.     62.13  0.000000                                   0.665967   0.666   0.000  -0.000
  27     20.9297043   168810.     59.24  0.082295  -1.000000   0.000000  -0.000000  0.009893  -0.010   0.000  -0.000
  28     21.5260616   173620.     57.60  0.000000                                   0.116030   0.116  -0.000  -0.000
  29     22.7699292   183652.     54.45  0.320128   1.000000  -0.000000  -0.000000  1.506774   1.507   0.000   0.000
  30     24.6497038   198814.     50.30  0.000000                                   0.114063  -0.114  -0.000   0.000
  31     24.6497038   198814.     50.30  0.000000                                   0.114063  -0.114  -0.000  -0.000
  32     24.7772986   199843.     50.04  0.000000                                   0.047779   0.048   0.000   0.000
  33     24.8686173   200579.     49.86  0.001294  -1.000000   0.000000   0.000000  0.037079  -0.037   0.000  -0.000
  34     25.6393446   206796.     48.36  0.000000                                   0.308650   0.309   0.000   0.000
  35     25.6393446   206796.     48.36  0.000000                                   0.308650   0.309   0.000   0.000
  36     25.6494445   206877.     48.34  0.000000                                   0.008984  -0.009   0.000   0.000
  37     26.2377925   211623.     47.25  0.000000                                   0.441661   0.442   0.000   0.000
  38     26.2377925   211623.     47.25  0.000000                                   0.441661   0.442   0.000  -0.000
  39     26.2805606   211968.     47.18  0.003381   0.000000  -0.160870   0.986976  2.820836  -2.821  -0.000  -0.000
  40     26.2805606   211968.     47.18  0.003381   0.000000  -0.986976  -0.160870  2.820836  -2.821  -0.000  -0.000
  41     27.1646878   219099.     45.64  0.004036   1.000000  -0.000000  -0.000000  0.331257   0.331   0.000   0.000
  42     27.5954647   222573.     44.93  0.000603  -0.000000  -0.976620  -0.214971  0.512999  -0.513  -0.000  -0.000
  43     27.5954647   222573.     44.93  0.000603  -0.000000  -0.214971   0.976620  0.512999  -0.513  -0.000   0.000
  44     30.7607503   248103.     40.31  0.000032  -0.000000   0.160745   0.986996  0.102276   0.102   0.000   0.000
  45     30.7607503   248103.     40.31  0.000032  -0.000000   0.986996  -0.160745  0.102276   0.102   0.000  -0.000
  46     31.2340981   251921.     39.70  0.000120  -0.000000  -0.153589   0.988135  0.690987  -0.691   0.000   0.000
  47     31.2340981   251921.     39.70  0.000120  -0.000000  -0.988135  -0.153589  0.690987  -0.691   0.000  -0.000
  48     32.7673762   264287.     37.84  0.000028   0.000000   0.160234   0.987079  1.226298  -1.226   0.000   0.000
  49     32.7673762   264287.     37.84  0.000028   0.000000   0.987079  -0.160234  1.226298  -1.226   0.000  -0.000
  50     33.1120982   267068.     37.44  0.000000                                   1.440033  -1.440   0.000  -0.000
  51     33.1120982   267068.     37.44  0.000000                                   1.440033  -1.440   0.000   0.000
  52     33.2790453   268414.     37.26  0.017933   1.000000  -0.000000  -0.000000  0.166313   0.166  -0.000  -0.000
  53     34.0908342   274962.     36.37  0.000006   0.000000   0.031648  -0.999499  1.415646  -1.416   0.000  -0.000
  54     34.0908342   274962.     36.37  0.000006  -0.000000  -0.999499  -0.031648  1.415646  -1.416   0.000  -0.000
  55     36.6618232   295698.     33.82  0.016697  -0.000000   0.124902   0.992169  1.628354   1.628   0.000  -0.000
  56     36.6618232   295698.     33.82  0.016697   0.000000   0.992169  -0.124902  1.628354   1.628   0.000  -0.000
  57     38.7845676   312819.     31.97  0.000000                                   1.176098  -1.176   0.000   0.000
  58     38.7845676   312819.     31.97  0.000000                                   1.176098  -1.176   0.000   0.000
  59     39.0647564   315079.     31.74  0.000000                                   1.290440  -1.290   0.000   0.000
  60     39.6324154   319658.     31.28  0.000011  -1.000000   0.000000  -0.000000  1.182886  -1.183   0.000   0.000
  61     39.9889748   322534.     31.00  0.000028   0.000000  -0.034381  -0.999409  1.575449  -1.575  -0.000  -0.000
  62     39.9889748   322534.     31.00  0.000028   0.000000  -0.999409   0.034381  1.575449  -1.575  -0.000  -0.000
  63     42.3360519   341464.     29.29  0.000000                                   0.983641   0.984   0.000   0.000
  64     42.3360519   341464.     29.29  0.000000                                   0.983641   0.984   0.000   0.000
  65     43.1106648   347712.     28.76  0.000476   1.000000   0.000000   0.000000  0.958694   0.959   0.000   0.000
  66     43.9970731   354861.     28.18  0.000000                                   0.594500   0.595   0.000   0.000
  67     50.7205642   409090.     24.44  0.299805   1.000000  -0.000000  -0.000000  0.547985   0.548   0.000   0.000
  68     50.9431861   410886.     24.34  0.000034  -0.000000   0.010445  -0.999945  0.486571  -0.487  -0.000   0.000
  69     50.9431861   410886.     24.34  0.000034  -0.000000  -0.999945  -0.010445  0.486571  -0.487   0.000   0.000
  70     52.6996303   425052.     23.53  0.001657  -0.000000  -0.046133  -0.998935  0.026062  -0.026   0.000  -0.000
  71     52.6996303   425052.     23.53  0.001657   0.000000   0.998935  -0.046133  0.026062  -0.026   0.000   0.000
  72     58.0591036   468279.     21.35  0.000067   0.000000  -0.402869  -0.915258  0.705699  -0.706   0.000  -0.000
  73     58.0591036   468279.     21.35  0.000067  -0.000000  -0.915258   0.402869  0.705699  -0.706   0.000  -0.000
  74     60.9137414   491304.     20.35  0.000000                                   1.654619  -1.655   0.000   0.000
  75     65.1890185   525786.     19.02  0.000000                                   2.105985  -2.106   0.000  -0.000
  76     65.1890185   525786.     19.02  0.000000                                   2.105985  -2.106   0.000   0.000
  77     66.0181388   532474.     18.78  0.000107  -1.000000   0.000000   0.000000  2.091038  -2.091   0.000   0.000
 
 Polarizability (au  ) xx=   13.49 xy=    0.00 yy=    5.58 xz=   -0.00 yz=    0.00 zz=    5.58
 Polarizability (A**3) xx=    2.00 xy=    0.00 yy=    0.83 xz=   -0.00 yz=    0.00 zz=    0.83
 
 
 Major CI contributions to CI states
 
State    1  0.0000     CI coeff  CI percent
    Config       1   0.99157401  0.98321903
    Config      15  -0.05496623  0.00302129
    Config      16  -0.05496623  0.00302129
    Config      43  -0.06273960  0.00393626
    Config      44  -0.06273960  0.00393626
Total percent printed            0.99713411
  
State    2  6.8797     CI coeff  CI percent
    Config       4  -0.70237768  0.49333440
    Config       5   0.70237768  0.49333440
    Config      28   0.04350990  0.00189311
    Config      29  -0.04350990  0.00189311
    Config      33   0.04494215  0.00201980
    Config      34  -0.04494215  0.00201980
    Config      35  -0.05235187  0.00274072
    Config      36   0.05235187  0.00274072
Total percent printed            0.99997606
  
State    3  6.9767     CI coeff  CI percent
    Config       2  -0.99123484  0.98254652
    Config       9   0.06677109  0.00445838
    Config      48  -0.06519303  0.00425013
Total percent printed            0.99125503
  
State    4  6.9767     CI coeff  CI percent
    Config       3  -0.99123484  0.98254652
    Config       8   0.06677109  0.00445838
    Config      47  -0.06519303  0.00425013
Total percent printed            0.99125503
  
State    5  7.2437     CI coeff  CI percent
    Config       4  -0.69815950  0.48742669
    Config       5  -0.69815950  0.48742669
    Config      12  -0.06027426  0.00363299
    Config      25   0.09076576  0.00823842
    Config      28   0.04261689  0.00181620
    Config      29   0.04261689  0.00181620
    Config      33   0.04485038  0.00201156
    Config      34   0.04485038  0.00201156
    Config      35   0.05228545  0.00273377
    Config      36   0.05228545  0.00273377
Total percent printed            0.99984783
  
State    6  7.2437     CI coeff  CI percent
    Config       6   0.69815950  0.48742669
    Config       7  -0.69815950  0.48742669
    Config      15   0.04262033  0.00181649
    Config      16  -0.04262033  0.00181649
    Config      26  -0.06418108  0.00411921
    Config      27   0.06418108  0.00411921
    Config      37   0.04261689  0.00181620
    Config      38  -0.04261689  0.00181620
    Config      43  -0.06863047  0.00471014
    Config      44   0.06863047  0.00471014
Total percent printed            0.99977746
  
State    7 11.2408     CI coeff  CI percent
    Config       3  -0.05032852  0.00253296
    Config       8  -0.84313097  0.71086983
    Config      10   0.31653355  0.10019349
    Config      13  -0.04579403  0.00209709
    Config      18   0.41092903  0.16886267
    Config      22   0.08935988  0.00798519
    Config      41   0.05158330  0.00266084
    Config      46   0.04793094  0.00229738
Total percent printed            0.99749943
  
State    8 11.2408     CI coeff  CI percent
    Config       2  -0.05032852  0.00253296
    Config       9  -0.84313097  0.71086983
    Config      11   0.31653355  0.10019349
    Config      14  -0.04579403  0.00209709
    Config      17   0.41092903  0.16886267
    Config      21  -0.08935988  0.00798519
    Config      42   0.05158330  0.00266084
    Config      45   0.04793094  0.00229738
Total percent printed            0.99749943
  
State    9 12.2281     CI coeff  CI percent
    Config       6  -0.64064902  0.41043116
    Config       7  -0.64064902  0.41043116
    Config      15   0.07562245  0.00571876
    Config      16   0.07562245  0.00571876
    Config      23   0.36556353  0.13363669
    Config      26   0.05303089  0.00281227
    Config      27   0.05303089  0.00281227
    Config      30  -0.11517428  0.01326512
    Config      43  -0.05670629  0.00321560
    Config      44  -0.05670629  0.00321560
    Config      67   0.07604528  0.00578288
Total percent printed            0.99704028
  
State   10 13.7421     CI coeff  CI percent
    Config      10   0.63143064  0.39870465
    Config      13   0.49970366  0.24970375
    Config      18  -0.49970366  0.24970375
    Config      22   0.31733712  0.10070285
Total percent printed            0.99881499
  
State   11 13.7421     CI coeff  CI percent
    Config      11  -0.63143064  0.39870465
    Config      14  -0.49970366  0.24970375
    Config      17   0.49970366  0.24970375
    Config      21   0.31733712  0.10070285
Total percent printed            0.99881499
  
State   12 13.9929     CI coeff  CI percent
    Config       2   0.06636883  0.00440482
    Config       9   0.35599024  0.12672905
    Config      11   0.70487410  0.49684749
    Config      14  -0.46160433  0.21307856
    Config      17   0.22121139  0.04893448
    Config      21   0.32732882  0.10714416
Total percent printed            0.99713856
  
State   13 13.9929     CI coeff  CI percent
    Config       3   0.06636883  0.00440482
    Config       8   0.35599024  0.12672905
    Config      10   0.70487410  0.49684749
    Config      13  -0.46160433  0.21307856
    Config      18   0.22121139  0.04893448
    Config      22  -0.32732882  0.10714416
Total percent printed            0.99713856
  
State   14 14.2941     CI coeff  CI percent
    Config      15  -0.70326640  0.49458363
    Config      16   0.70326640  0.49458363
    Config      37   0.04831248  0.00233410
    Config      38  -0.04831248  0.00233410
Total percent printed            0.99383545
  
State   15 14.2941     CI coeff  CI percent
    Config      12  -0.99456888  0.98916725
    Config      25  -0.05054401  0.00255470
    Config      28  -0.04831248  0.00233410
    Config      29  -0.04831248  0.00233410
Total percent printed            0.99639014
  
State   16 14.7320     CI coeff  CI percent
    Config       8  -0.17706504  0.03135203
    Config      13  -0.72764073  0.52946102
    Config      18  -0.51720076  0.26749663
    Config      20   0.05848219  0.00342017
    Config      22   0.40012713  0.16010172
    Config      41   0.06918737  0.00478689
Total percent printed            0.99661846
  
State   17 14.7320     CI coeff  CI percent
    Config       9   0.17706504  0.03135203
    Config      14   0.72764073  0.52946102
    Config      17   0.51720076  0.26749663
    Config      19  -0.05848219  0.00342017
    Config      21   0.40012713  0.16010172
    Config      42  -0.06918737  0.00478689
Total percent printed            0.99661846
  
State   18 15.0901     CI coeff  CI percent
    Config       1  -0.07544996  0.00569270
    Config       6  -0.04172705  0.00174115
    Config       7  -0.04172705  0.00174115
    Config      15  -0.69604861  0.48448367
    Config      16  -0.69604861  0.48448367
    Config      23   0.13347183  0.01781473
Total percent printed            0.99595707
  
State   19 17.6907     CI coeff  CI percent
    Config      14  -0.04613801  0.00212872
    Config      19  -0.99154740  0.98316625
    Config      21  -0.04999304  0.00249930
    Config      48  -0.06101563  0.00372291
    Config      51   0.05333939  0.00284509
    Config      53   0.05552355  0.00308286
Total percent printed            0.99744514
  
State   20 17.6907     CI coeff  CI percent
    Config      13  -0.04613801  0.00212872
    Config      20  -0.99154740  0.98316625
    Config      22   0.04999304  0.00249930
    Config      47  -0.06101563  0.00372291
    Config      52   0.05333939  0.00284509
    Config      54   0.05552355  0.00308286
Total percent printed            0.99744514
  
State   21 18.9603     CI coeff  CI percent
    Config       6   0.18718358  0.03503769
    Config       7   0.18718358  0.03503769
    Config      15   0.05052100  0.00255237
    Config      16   0.05052100  0.00255237
    Config      23   0.78774026  0.62053472
    Config      26  -0.27589473  0.07611790
    Config      27  -0.27589473  0.07611790
    Config      30   0.30956896  0.09583294
    Config      31  -0.12541485  0.01572888
    Config      32  -0.12541485  0.01572888
    Config      37   0.08590613  0.00737986
    Config      38   0.08590613  0.00737986
    Config      43  -0.04720615  0.00222842
    Config      44  -0.04720615  0.00222842
    Config      67  -0.06405480  0.00410302
Total percent printed            0.99856095
  
State   22 18.9744     CI coeff  CI percent
    Config      24   0.91228306  0.83226039
    Config      28   0.28831243  0.08312406
    Config      29  -0.28831243  0.08312406
Total percent printed            0.99850851
  
State   23 19.4014     CI coeff  CI percent
    Config       9  -0.32189182  0.10361434
    Config      17  -0.48932471  0.23943868
    Config      21   0.75354265  0.56782652
    Config      40  -0.25861977  0.06688418
    Config      45  -0.08451590  0.00714294
    Config      48   0.07342025  0.00539053
    Config      72   0.07843505  0.00615206
Total percent printed            0.99644925
  
State   24 19.4014     CI coeff  CI percent
    Config       8   0.32189182  0.10361434
    Config      18   0.48932471  0.23943868
    Config      22   0.75354265  0.56782652
    Config      39   0.25861977  0.06688418
    Config      46   0.08451590  0.00714294
    Config      47  -0.07342025  0.00539053
    Config      73  -0.07843505  0.00615206
Total percent printed            0.99644925
  
State   25 19.9556     CI coeff  CI percent
    Config       6   0.07961671  0.00633882
    Config       7  -0.07961671  0.00633882
    Config      15  -0.04946608  0.00244689
    Config      16   0.04946608  0.00244689
    Config      26   0.63024836  0.39721300
    Config      27  -0.63024836  0.39721300
    Config      37  -0.30478884  0.09289624
    Config      38   0.30478884  0.09289624
Total percent printed            0.99778990
  
State   26 19.9556     CI coeff  CI percent
    Config       4  -0.07961671  0.00633882
    Config       5  -0.07961671  0.00633882
    Config      12   0.06995560  0.00489379
    Config      25  -0.89130578  0.79442599
    Config      28  -0.30478884  0.09289624
    Config      29  -0.30478884  0.09289624
    Config      63   0.04640608  0.00215352
Total percent printed            0.99994342
  
State   27 20.9297     CI coeff  CI percent
    Config       6   0.10290513  0.01058947
    Config       7   0.10290513  0.01058947
    Config      15   0.05085657  0.00258639
    Config      16   0.05085657  0.00258639
    Config      23   0.28740809  0.08260341
    Config      26   0.56487167  0.31908000
    Config      27   0.56487167  0.31908000
    Config      30   0.21441390  0.04597332
    Config      31  -0.09569333  0.00915721
    Config      32  -0.09569333  0.00915721
    Config      37  -0.30162083  0.09097513
    Config      38  -0.30162083  0.09097513
Total percent printed            0.99335313
  
State   28 21.5261     CI coeff  CI percent
    Config       4  -0.04095546  0.00167735
    Config       5   0.04095546  0.00167735
    Config      24   0.40881304  0.16712810
    Config      28  -0.64314667  0.41363764
    Config      29   0.64314667  0.41363764
Total percent printed            0.99775808
  
State   29 22.7699     CI coeff  CI percent
    Config       6  -0.15718727  0.02470784
    Config       7  -0.15718727  0.02470784
    Config      23  -0.36663195  0.13441899
    Config      26  -0.04368529  0.00190840
    Config      27  -0.04368529  0.00190840
    Config      30   0.77879062  0.60651483
    Config      31  -0.26617882  0.07085117
    Config      32  -0.26617882  0.07085117
    Config      37   0.05946986  0.00353666
    Config      38   0.05946986  0.00353666
    Config      43  -0.14280979  0.02039464
    Config      44  -0.14280979  0.02039464
    Config      60  -0.05482875  0.00300619
    Config      61  -0.05482875  0.00300619
    Config      67   0.08269218  0.00683800
Total percent printed            0.99658161
  
State   30 24.6497     CI coeff  CI percent
    Config      28   0.05001109  0.00250111
    Config      29   0.05001109  0.00250111
    Config      33   0.68032691  0.46284470
    Config      34   0.68032691  0.46284470
    Config      35  -0.17913046  0.03208772
    Config      36  -0.17913046  0.03208772
Total percent printed            0.99486707
  
State   31 24.6497     CI coeff  CI percent
    Config      31   0.65708531  0.43176110
    Config      32  -0.65708531  0.43176110
    Config      37   0.05001109  0.00250111
    Config      38  -0.05001109  0.00250111
    Config      43  -0.25133906  0.06317132
    Config      44   0.25133906  0.06317132
Total percent printed            0.99486707
  
State   32 24.7773     CI coeff  CI percent
    Config       4  -0.04988255  0.00248827
    Config       5   0.04988255  0.00248827
    Config      33  -0.69824439  0.48754522
    Config      34   0.69824439  0.48754522
    Config      35   0.08992632  0.00808674
    Config      36  -0.08992632  0.00808674
Total percent printed            0.99624047
  
State   33 24.8686     CI coeff  CI percent
    Config      23  -0.05020858  0.00252090
    Config      30  -0.39429735  0.15547040
    Config      31  -0.63303290  0.40073066
    Config      32  -0.63303290  0.40073066
    Config      43   0.13555431  0.01837497
    Config      44   0.13555431  0.01837497
Total percent printed            0.99620256
  
State   34 25.6393     CI coeff  CI percent
    Config       4   0.05937549  0.00352545
    Config       5   0.05937549  0.00352545
    Config      25  -0.20069878  0.04028000
    Config      28   0.28018531  0.07850381
    Config      29   0.28018531  0.07850381
    Config      33   0.12897848  0.01663545
    Config      34   0.12897848  0.01663545
    Config      35   0.61246975  0.37511920
    Config      36   0.61246975  0.37511920
    Config      59  -0.09673490  0.00935764
Total percent printed            0.99720545
  
State   35 25.6393     CI coeff  CI percent
    Config       6   0.05937549  0.00352545
    Config       7  -0.05937549  0.00352545
    Config      26  -0.14191547  0.02014000
    Config      27   0.14191547  0.02014000
    Config      31   0.25249371  0.06375307
    Config      32  -0.25249371  0.06375307
    Config      37  -0.28018531  0.07850381
    Config      38   0.28018531  0.07850381
    Config      43   0.57271421  0.32800157
    Config      44  -0.57271421  0.32800157
    Config      60   0.06840190  0.00467882
    Config      61  -0.06840190  0.00467882
Total percent printed            0.99720545
  
State   36 25.6494     CI coeff  CI percent
    Config       4   0.04516768  0.00204012
    Config       5  -0.04516768  0.00204012
    Config      33  -0.09160235  0.00839099
    Config      34   0.09160235  0.00839099
    Config      35  -0.69821287  0.48750121
    Config      36   0.69821287  0.48750121
    Config      62  -0.04537372  0.00205877
Total percent printed            0.99792341
  
State   37 26.2378     CI coeff  CI percent
    Config      26  -0.27066891  0.07326166
    Config      27   0.27066891  0.07326166
    Config      31  -0.06655244  0.00442923
    Config      32   0.06655244  0.00442923
    Config      37  -0.56017734  0.31379865
    Config      38   0.56017734  0.31379865
    Config      43  -0.31792425  0.10107583
    Config      44   0.31792425  0.10107583
    Config      60   0.05583958  0.00311806
    Config      61  -0.05583958  0.00311806
    Config      76  -0.05063912  0.00256432
    Config      77   0.05063912  0.00256432
Total percent printed            0.99649550
  
State   38 26.2378     CI coeff  CI percent
    Config      25  -0.38278365  0.14652332
    Config      28   0.56017734  0.31379865
    Config      29   0.56017734  0.31379865
    Config      33  -0.13138949  0.01726320
    Config      34  -0.13138949  0.01726320
    Config      35  -0.29705532  0.08824186
    Config      36  -0.29705532  0.08824186
    Config      59  -0.07896909  0.00623612
    Config      63   0.04082637  0.00166679
    Config      75  -0.07161453  0.00512864
Total percent printed            0.99816229
  
State   39 26.2806     CI coeff  CI percent
    Config       9  -0.13735243  0.01886569
    Config      17  -0.10326402  0.01066346
    Config      21   0.12096502  0.01463254
    Config      39  -0.13710823  0.01879867
    Config      40   0.84119013  0.70760084
    Config      41   0.06180411  0.00381975
    Config      42  -0.37918223  0.14377916
    Config      45  -0.24213895  0.05863127
    Config      48  -0.07363376  0.00542193
    Config      50  -0.05395353  0.00291098
    Config      53   0.05516837  0.00304355
    Config      70  -0.04947883  0.00244815
    Config      72   0.05984347  0.00358124
Total percent printed            0.99419723
  
State   40 26.2806     CI coeff  CI percent
    Config       8   0.13735243  0.01886569
    Config      18   0.10326402  0.01066346
    Config      22   0.12096502  0.01463254
    Config      39  -0.84119013  0.70760084
    Config      40  -0.13710823  0.01879867
    Config      41   0.37918223  0.14377916
    Config      42   0.06180411  0.00381975
    Config      46   0.24213895  0.05863127
    Config      47   0.07363376  0.00542193
    Config      49  -0.05395353  0.00291098
    Config      54  -0.05516837  0.00304355
    Config      71   0.04947883  0.00244815
    Config      73  -0.05984347  0.00358124
Total percent printed            0.99419723
  
State   41 27.1647     CI coeff  CI percent
    Config       6  -0.07175190  0.00514834
    Config       7  -0.07175190  0.00514834
    Config      23  -0.04545465  0.00206613
    Config      26  -0.30803633  0.09488638
    Config      27  -0.30803633  0.09488638
    Config      37  -0.62266798  0.38771541
    Config      38  -0.62266798  0.38771541
    Config      60  -0.08525566  0.00726853
    Config      61  -0.08525566  0.00726853
    Config      76   0.05724132  0.00327657
    Config      77   0.05724132  0.00327657
Total percent printed            0.99865657
  
State   42 27.5955     CI coeff  CI percent
    Config      13  -0.04025780  0.00162069
    Config      22   0.11443241  0.01309478
    Config      39  -0.34247424  0.11728860
    Config      40  -0.07538449  0.00568282
    Config      41  -0.89541826  0.80177386
    Config      42  -0.19709702  0.03884724
    Config      46   0.11460715  0.01313480
Total percent printed            0.99144279
  
State   43 27.5955     CI coeff  CI percent
    Config      14   0.04025780  0.00162069
    Config      21   0.11443241  0.01309478
    Config      39  -0.07538449  0.00568282
    Config      40   0.34247424  0.11728860
    Config      41  -0.19709702  0.03884724
    Config      42   0.89541826  0.80177386
    Config      45  -0.11460715  0.01313480
Total percent printed            0.99144279
  
State   44 30.7608     CI coeff  CI percent
    Config      17  -0.08818218  0.00777610
    Config      21   0.11717437  0.01372983
    Config      40   0.24526221  0.06015355
    Config      45   0.87782277  0.77057282
    Config      46   0.14296508  0.02043902
    Config      48  -0.05463376  0.00298485
    Config      49  -0.04125887  0.00170229
    Config      50   0.25333441  0.06417832
    Config      51   0.04391097  0.00192817
    Config      53  -0.16380477  0.02683200
    Config      55  -0.12400282  0.01537670
    Config      57  -0.07507878  0.00563682
    Config      72   0.06098621  0.00371932
Total percent printed            0.99502979
  
State   45 30.7608     CI coeff  CI percent
    Config      18  -0.08818218  0.00777610
    Config      22  -0.11717437  0.01372983
    Config      39   0.24526221  0.06015355
    Config      45  -0.14296508  0.02043902
    Config      46   0.87782277  0.77057282
    Config      47  -0.05463376  0.00298485
    Config      49  -0.25333441  0.06417832
    Config      50  -0.04125887  0.00170229
    Config      52   0.04391097  0.00192817
    Config      54  -0.16380477  0.02683200
    Config      56  -0.12400282  0.01537670
    Config      58  -0.07507878  0.00563682
    Config      73   0.06098621  0.00371932
Total percent printed            0.99502979
  
State   46 31.2341     CI coeff  CI percent
    Config      19   0.07121718  0.00507189
    Config      40  -0.09349531  0.00874137
    Config      47   0.13630024  0.01857776
    Config      48  -0.87690289  0.76895868
    Config      53   0.26903665  0.07238072
    Config      54  -0.04181736  0.00174869
    Config      55  -0.33400686  0.11156058
    Config      56   0.05191592  0.00269526
    Config      70  -0.04777358  0.00228231
Total percent printed            0.99201726
  
State   47 31.2341     CI coeff  CI percent
    Config      20  -0.07121718  0.00507189
    Config      39   0.09349531  0.00874137
    Config      47   0.87690289  0.76895868
    Config      48   0.13630024  0.01857776
    Config      53  -0.04181736  0.00174869
    Config      54  -0.26903665  0.07238072
    Config      55   0.05191592  0.00269526
    Config      56   0.33400686  0.11156058
    Config      71   0.04777358  0.00228231
Total percent printed            0.99201726
  
State   48 32.7674     CI coeff  CI percent
    Config      45  -0.33193382  0.11018006
    Config      46  -0.05388324  0.00290340
    Config      48  -0.04398430  0.00193462
    Config      49  -0.12007769  0.01441865
    Config      50   0.73970765  0.54716741
    Config      51   0.26788795  0.07176395
    Config      52   0.04348659  0.00189108
    Config      53  -0.40271138  0.16217646
    Config      54  -0.06537266  0.00427358
    Config      55  -0.27781105  0.07717898
    Config      56  -0.04509743  0.00203378
Total percent printed            0.99592199
  
State   49 32.7674     CI coeff  CI percent
    Config      45   0.05388324  0.00290340
    Config      46  -0.33193382  0.11018006
    Config      47  -0.04398430  0.00193462
    Config      49  -0.73970765  0.54716741
    Config      50  -0.12007769  0.01441865
    Config      51  -0.04348659  0.00189108
    Config      52   0.26788795  0.07176395
    Config      53   0.06537266  0.00427358
    Config      54  -0.40271138  0.16217646
    Config      55   0.04509743  0.00203378
    Config      56  -0.27781105  0.07717898
Total percent printed            0.99592199
  
State   50 33.1121     CI coeff  CI percent
    Config      50  -0.59549226  0.35461104
    Config      51   0.49947250  0.24947278
    Config      53  -0.49947250  0.24947278
    Config      55  -0.37991383  0.14433452
Total percent printed            0.99789111
  
State   51 33.1121     CI coeff  CI percent
    Config      49   0.59549226  0.35461104
    Config      52   0.49947250  0.24947278
    Config      54  -0.49947250  0.24947278
    Config      56  -0.37991383  0.14433452
Total percent printed            0.99789111
  
State   52 33.2790     CI coeff  CI percent
    Config       1   0.08061862  0.00649936
    Config       6  -0.07055154  0.00497752
    Config       7  -0.07055154  0.00497752
    Config      30   0.27516296  0.07571465
    Config      31   0.05552036  0.00308251
    Config      32   0.05552036  0.00308251
    Config      43   0.66481800  0.44198298
    Config      44   0.66481800  0.44198298
    Config      60   0.04872014  0.00237365
    Config      61   0.04872014  0.00237365
    Config      64   0.06519475  0.00425036
    Config      65   0.06519475  0.00425036
    Config      67   0.05640418  0.00318143
Total percent printed            0.99872948
  
State   53 34.0908     CI coeff  CI percent
    Config      19   0.06767367  0.00457973
    Config      45   0.06584170  0.00433513
    Config      50   0.10145793  0.01029371
    Config      51   0.81720905  0.66783063
    Config      53   0.45684681  0.20870901
    Config      55   0.31473878  0.09906050
    Config      68  -0.04877470  0.00237897
Total percent printed            0.99718767
  
State   54 34.0908     CI coeff  CI percent
    Config      20   0.06767367  0.00457973
    Config      46   0.06584170  0.00433513
    Config      49  -0.10145793  0.01029371
    Config      52   0.81720905  0.66783063
    Config      54   0.45684681  0.20870901
    Config      56   0.31473878  0.09906050
    Config      69  -0.04877470  0.00237897
Total percent printed            0.99718767
  
State   55 36.6618     CI coeff  CI percent
    Config      40   0.04722163  0.00222988
    Config      45   0.07068491  0.00499636
    Config      53  -0.04159060  0.00172978
    Config      55   0.06619847  0.00438224
    Config      57   0.97648634  0.95352558
    Config      58   0.12292727  0.01511111
    Config      68  -0.06311527  0.00398354
    Config      70   0.10300693  0.01061043
Total percent printed            0.99656891
  
State   56 36.6618     CI coeff  CI percent
    Config      39   0.04722163  0.00222988
    Config      46   0.07068491  0.00499636
    Config      54  -0.04159060  0.00172978
    Config      56   0.06619847  0.00438224
    Config      57  -0.12292727  0.01511111
    Config      58   0.97648634  0.95352558
    Config      69  -0.06311527  0.00398354
    Config      71   0.10300693  0.01061043
Total percent printed            0.99656891
  
State   57 38.7846     CI coeff  CI percent
    Config      25  -0.04997568  0.00249757
    Config      28   0.07304797  0.00533601
    Config      29   0.07304797  0.00533601
    Config      59   0.98831994  0.97677630
    Config      63  -0.07475201  0.00558786
Total percent printed            0.99553374
  
State   58 38.7846     CI coeff  CI percent
    Config      37   0.07304797  0.00533601
    Config      38  -0.07304797  0.00533601
    Config      60   0.69884773  0.48838815
    Config      61  -0.69884773  0.48838815
    Config      64  -0.05285765  0.00279393
    Config      65   0.05285765  0.00279393
Total percent printed            0.99303617
  
State   59 39.0648     CI coeff  CI percent
    Config      62  -0.99493015  0.98988600
    Config      66   0.05693072  0.00324111
    Config      74   0.05477274  0.00300005
Total percent printed            0.99612716
  
State   60 39.6324     CI coeff  CI percent
    Config      30   0.06075363  0.00369100
    Config      37  -0.07481141  0.00559675
    Config      38  -0.07481141  0.00559675
    Config      43  -0.05597435  0.00313313
    Config      44  -0.05597435  0.00313313
    Config      60   0.69465260  0.48254224
    Config      61   0.69465260  0.48254224
    Config      64  -0.06288747  0.00395483
    Config      65  -0.06288747  0.00395483
Total percent printed            0.99414489
  
State   61 39.9890     CI coeff  CI percent
    Config       2   0.07464865  0.00557242
    Config      40  -0.04253556  0.00180927
    Config      48  -0.42863144  0.18372491
    Config      53  -0.51215738  0.26230518
    Config      55   0.73030982  0.53335243
    Config      57  -0.07224604  0.00521949
    Config      68  -0.06015223  0.00361829
Total percent printed            0.99560200
  
State   62 39.9890     CI coeff  CI percent
    Config       3   0.07464865  0.00557242
    Config      39  -0.04253556  0.00180927
    Config      47  -0.42863144  0.18372491
    Config      54  -0.51215738  0.26230518
    Config      56   0.73030982  0.53335243
    Config      58  -0.07224604  0.00521949
    Config      69  -0.06015223  0.00361829
Total percent printed            0.99560200
  
State   63 42.3361     CI coeff  CI percent
    Config      43  -0.04093249  0.00167547
    Config      44   0.04093249  0.00167547
    Config      60   0.05161554  0.00266416
    Config      61  -0.05161554  0.00266416
    Config      64   0.70271943  0.49381459
    Config      65  -0.70271943  0.49381459
Total percent printed            0.99630845
  
State   64 42.3361     CI coeff  CI percent
    Config      25  -0.04913076  0.00241383
    Config      59  -0.07299539  0.00532833
    Config      63  -0.99379534  0.98762918
Total percent printed            0.99537134
  
State   65 43.1107     CI coeff  CI percent
    Config      43  -0.06868112  0.00471710
    Config      44  -0.06868112  0.00471710
    Config      60   0.05795098  0.00335832
    Config      61   0.05795098  0.00335832
    Config      64   0.69923194  0.48892531
    Config      65   0.69923194  0.48892531
Total percent printed            0.99400143
  
State   66 43.9971     CI coeff  CI percent
    Config      62   0.05716924  0.00326832
    Config      66   0.99593377  0.99188408
    Config      74  -0.04671097  0.00218192
Total percent printed            0.99733432
  
State   67 50.7206     CI coeff  CI percent
    Config       6  -0.08285270  0.00686457
    Config       7  -0.08285270  0.00686457
    Config      23  -0.05790514  0.00335301
    Config      30   0.05691371  0.00323917
    Config      67  -0.98520230  0.97062357
    Config      76   0.05581210  0.00311499
    Config      77   0.05581210  0.00311499
Total percent printed            0.99717487
  
State   68 50.9432     CI coeff  CI percent
    Config      42  -0.04015987  0.00161282
    Config      55  -0.07148373  0.00510992
    Config      57  -0.06368859  0.00405624
    Config      68  -0.99261314  0.98528085
Total percent printed            0.99605982
  
State   69 50.9432     CI coeff  CI percent
    Config      41  -0.04015987  0.00161282
    Config      56  -0.07148373  0.00510992
    Config      58  -0.06368859  0.00405624
    Config      69  -0.99261314  0.98528085
Total percent printed            0.99605982
  
State   70 52.6996     CI coeff  CI percent
    Config      40   0.04201933  0.00176562
    Config      48  -0.05593258  0.00312845
    Config      57  -0.10161827  0.01032627
    Config      68   0.04506481  0.00203084
    Config      70   0.98941249  0.97893708
    Config      71   0.04569328  0.00208788
Total percent printed            0.99827614
  
State   71 52.6996     CI coeff  CI percent
    Config      39  -0.04201933  0.00176562
    Config      47   0.05593258  0.00312845
    Config      58   0.10161827  0.01032627
    Config      69  -0.04506481  0.00203084
    Config      70   0.04569328  0.00208788
    Config      71  -0.98941249  0.97893708
Total percent printed            0.99827614
  
State   72 58.0591     CI coeff  CI percent
    Config      17  -0.05233222  0.00273866
    Config      21   0.07073837  0.00500392
    Config      40   0.05232873  0.00273830
    Config      72  -0.90782329  0.82414312
    Config      73  -0.39959687  0.15967766
Total percent printed            0.99430165
  
State   73 58.0591     CI coeff  CI percent
    Config      18  -0.05233222  0.00273866
    Config      22  -0.07073837  0.00500392
    Config      39   0.05232873  0.00273830
    Config      72   0.39959687  0.15967766
    Config      73  -0.90782329  0.82414312
Total percent printed            0.99430165
  
State   74 60.9137     CI coeff  CI percent
    Config      62  -0.05765219  0.00332378
    Config      66  -0.04334438  0.00187874
    Config      74  -0.99691798  0.99384546
Total percent printed            0.99904797
  
State   75 65.1890     CI coeff  CI percent
    Config      37   0.05247505  0.00275363
    Config      38  -0.05247505  0.00275363
    Config      76  -0.70399878  0.49561428
    Config      77   0.70399878  0.49561428
Total percent printed            0.99673582
  
State   76 65.1890     CI coeff  CI percent
    Config      28   0.05247505  0.00275363
    Config      29   0.05247505  0.00275363
    Config      75   0.99560462  0.99122855
Total percent printed            0.99673582
  
State   77 66.0181     CI coeff  CI percent
    Config      37   0.05261982  0.00276885
    Config      38   0.05261982  0.00276885
    Config      67   0.07886806  0.00622017
    Config      76   0.70164771  0.49230950
    Config      77   0.70164771  0.49230950
Total percent printed            0.99637687
  

 -------------------------------------------------------------------------------
 INDO MRCI C.A.S.=(3,1)
 Carbon Monoxide
 INDO


     NO PARAMETERS MARKED FOR OPTIMIZATION, SO 1SCF WAS USED  
     SCF FIELD WAS ACHIEVED                                   


                              INDO CALCULATION
                                                       MOPAC2016 (Version: 20.173L)
                                                       Mon Jun 29 13:00:58 2020




          FINAL HEAT OF FORMATION =     -10431.61786 KCAL/MOL =  -43645.88914 KJ/MOL


          TOTAL ENERGY            =       -462.35136 EV
          ELECTRONIC ENERGY       =       -621.46378 EV  POINT GROUP:     C*v 
          CORE-CORE REPULSION     =        159.11243 EV
          COSMO AREA              =         57.92 SQUARE ANGSTROMS
          COSMO VOLUME            =         40.40 CUBIC ANGSTROMS

          IONIZATION POTENTIAL    =         14.497186 EV
          HOMO LUMO ENERGIES (EV) =        -14.497  0.094
          NO. OF FILLED LEVELS    =          5
          MOLECULAR WEIGHT        =         28.0104

          MOLECULAR DIMENSIONS (Angstroms)

            Atom       Atom       Distance
            O     2    C     1     1.17300
            O     2    C     1     0.00000
            C     1    O     2     0.00000


          SCF CALCULATIONS        =          1
 
          WALL-CLOCK TIME         =          0.090 SECONDS
          COMPUTATION TIME        =          0.031 SECONDS




   ATOM   CHEMICAL          X               Y               Z
  NUMBER   SYMBOL      (ANGSTROMS)     (ANGSTROMS)     (ANGSTROMS)
 
     1       C          0.00000000      0.00000000      0.00000000   
     2       O          1.17300000      0.00000000      0.00000000   

                             CARTESIAN COORDINATES

   1    C        0.000000000     0.000000000     0.000000000
   2    O        1.173000000     0.000000000     0.000000000


           Empirical Formula: C O  =     2 atoms



      MOLECULAR POINT GROUP   :   C*v 


                  EIGENVALUES  
 -43.05348 -19.27363 -14.77497 -14.77497 -14.49719   0.09377   0.09377  10.49943


              NET ATOMIC CHARGES AND DIPOLE CONTRIBUTIONS

  ATOM NO.   TYPE          CHARGE      No. of ELECS.   s-Pop       p-Pop       
    1          C           0.230129        3.7699     1.80759     1.96228
    2          O          -0.230129        6.2301     1.79510     4.43503
 DIPOLE           X         Y         Z       TOTAL
 POINT-CHG.    -1.297     0.000     0.000     1.297
 HYBRID         0.829    -0.000     0.000     0.829
 SUM           -0.468    -0.000     0.000     0.468


          ATOMIC ORBITAL ELECTRON POPULATIONS

     Atom    s        px        py        pz   
    1  C   1.80759   1.00955   0.47637   0.47637
    2  O   1.79510   1.38776   1.52363   1.52363

 **********************
 *                    *
 * JOB ENDED NORMALLY *
 *                    *
 **********************



 TOTAL JOB TIME:             0.16 SECONDS

 == MOPAC DONE ==


          MOPAC Job: "co_mrci.mop" ended normally on Jun 29, 2020, at 13:00.

