 *******************************************************************************
 ** Site#:    0         For non-commercial use only           Version 21.055M **
 *******************************************************************************
 ** Cite this program as: MOPAC2016, Version: 21.055M, James J. P. Stewart,   **
 ** Stewart Computational Chemistry, web-site: HTTP://OpenMOPAC.net.          **
 *******************************************************************************
 **                                                                           **
 **                                MOPAC2016                                  **
 **                                                                           **
 *******************************************************************************

                              INDO CALCULATION RESULTS

 *******************************************************************************
 *  CALCULATION DONE:                                Fri Feb 26 19:06:39 2021  *
 *  INDO       - The INDO Hamiltonian to be used
 *  MRCI       -  Use multi-reference CI (specify ref dets using C.A.S.)
 * C.A.S.=(N,M)-  1 DOUBLY FILLED LEVELS USED IN A
 *             CAS REF DET GENERATION INVOLVING  3 M.O.'S
 *  T=         - A TIME OF 172800.0 SECONDS REQUESTED
 *  DUMP=N     - RESTART FILE WRITTEN EVERY 7200.0 SECONDS REQUESTED
 *******************************************************************************
INDO MRCI C.A.S.=(3,1)
 Carbon Monoxide
 INDO
   ATOM   CHEMICAL          X               Y               Z
  NUMBER   SYMBOL      (ANGSTROMS)     (ANGSTROMS)     (ANGSTROMS)

     1       C          0.00000000      0.00000000      0.00000000   
     2       O          1.17300000      0.00000000      0.00000000   



          CARTESIAN COORDINATES 

    NO.       ATOM           X           Y           Z

     1         C          0.0000      0.0000      0.0000
     2         O          1.1730      0.0000      0.0000

           Empirical Formula: C O  =     2 atoms



      MOLECULAR POINT GROUP   :   C*v 


      RHF CALCULATION, NO. OF DOUBLY OCCUPIED LEVELS = 5

 WARNING: INDO only performs single-point calculations

 Summary of symmetry occupancy in each shell:

 SHELL     
    1    5
    v    3
 TOTAL   8




    ROOT NO.    1           2           3           4           5           6

           -43.05652   -19.27644   -14.77940   -14.77940   -14.49534     0.09603
  
  
  S  C   1   0.44267    -0.58677    -0.00000    -0.00000    -0.60295    -0.00000
 PX  C   1   0.36283     0.01825     0.00000    -0.00000     0.61061    -0.00000
 PY  C   1  -0.00000     0.00000     0.48812    -0.00000    -0.00000     0.87278
 PZ  C   1   0.00000    -0.00000    -0.00000     0.48812     0.00000     0.00000
  
  S  O   2   0.77781     0.52976     0.00000    -0.00000    -0.10914    -0.00000
 PX  O   2  -0.25962     0.61215    -0.00000     0.00000    -0.50170    -0.00000
 PY  O   2  -0.00000    -0.00000     0.87278     0.00000    -0.00000    -0.48812
 PZ  O   2  -0.00000     0.00000    -0.00000     0.87278     0.00000     0.00000




    ROOT NO.    7           8

             0.09603    10.49950
  
  
  S  C   1  -0.00000     0.31016
 PX  C   1  -0.00000     0.70369
 PY  C   1  -0.00000     0.00000
 PZ  C   1   0.87278    -0.00000
  
  S  O   2  -0.00000    -0.32009
 PX  O   2   0.00000     0.55333
 PY  O   2  -0.00000    -0.00000
 PZ  O   2  -0.48812     0.00000


 Reference determinate nber   1 is ALPHA 1 -   5
 CAS excitations amongst orbitals:   5   6   7
 SINGLE excitations FROM orbs   1 to   5 INTO orbs   6 to   8


 CI excitations=   77:        = 77
 The lowest   77 spin-adapted configurations of multiplicity=  1
     sym   eV   cm**-1 -dets- dipole oscilator X FRAG ....Excitations named from first reference determinate
                       tot  #  Debye  strength

   1     -0.000      0.  1  1  0.4656 0.000000 0  0 (            )->(               )
   2      6.886  55542.  2  1  1.8085 0.063444 1  1 (   5        )->(   7           )
   3      6.886  55542.  2  1  1.8085 0.063444 1  1 (   5        )->(   6           )
   4      6.934  55929.  2  1  2.4836 0.000000 1  1 (   4        )->(   6           )
   5      6.934  55929.  2  1  2.4836 0.000000 1  1 (   3        )->(   7           )
   6     10.542  85024.  2  1  2.4836 0.460623 1  1 (   3        )->(   6           )
   7     10.542  85024.  2  1  2.4836 0.460623 1  1 (   4        )->(   7           )
   8     12.498 100807.  2  1  2.8818 0.234605 1  1 (   2        )->(   6           )
   9     12.498 100807.  2  1  2.8818 0.234605 1  1 (   2        )->(   7           )
  10     13.227 106680.  6  1  1.1407 0.000000 2  1 (   4   5    )->(   6   7       )
  11     13.227 106680.  6  1  1.1407 0.000000 2  1 (   3   5    )->(   6   7       )
  12     13.933 112374.  2  1  3.1514 0.000000 2  1 (   5   5    )->(   6   7       )
  13     13.951 112525.  2  1  1.1407 0.000000 2  1 (   3   5    )->(   7   7       )
  14     13.951 112525.  2  1  1.1407 0.000000 2  1 (   4   5    )->(   6   6       )
  15     14.294 115286.  1  1  3.1514 0.000000 2  0 (   5   5    )->(   7   7       )
  16     14.294 115286.  1  1  3.1514 0.000000 2  0 (   5   5    )->(   6   6       )
  17     15.009 121058.  2  1  1.1407 0.000000 2  1 (   4   5    )->(   7   7       )
  18     15.009 121058.  2  1  1.1407 0.000000 2  1 (   3   5    )->(   6   6       )
  19     17.437 140642.  2  1  1.1095 0.001563 1  1 (   4        )->(   8           )
  20     17.437 140642.  2  1  1.1095 0.001563 1  1 (   3        )->(   8           )
  21     17.658 142421.  6  2  1.1407 0.000000 2  1 (   3   5    )->(   6   7       )
  22     17.658 142421.  6  2  1.1407 0.000000 2  1 (   4   5    )->(   6   7       )
  23     18.450 148810.  2  1  3.1826 0.421694 1  1 (   5        )->(   8           )
  24     18.996 153215.  6  1  1.5389 0.000000 2  1 (   2   5    )->(   6   7       )
  25     20.732 167214.  6  2  1.5389 0.000000 2  1 (   2   5    )->(   6   7       )
  26     21.093 170126.  2  1  1.5389 0.000000 2  1 (   2   5    )->(   7   7       )
  27     21.093 170126.  2  1  1.5389 0.000000 2  1 (   2   5    )->(   6   6       )
  28     22.716 183219.  2  1  0.2022 0.000000 3  1 (   4   5   5)->(   6   7   7   )
  29     22.716 183219.  2  1  0.2022 0.000000 3  1 (   3   5   5)->(   6   6   7   )
  30     23.036 185800.  2  1  1.5078 0.006330 1  1 (   2        )->(   8           )
  31     24.156 194833.  6  1  0.2334 0.000000 2  1 (   4   5    )->(   7   8       )
  32     24.156 194833.  6  1  0.2334 0.000000 2  1 (   3   5    )->(   6   8       )
  33     24.316 196118.  6  1  0.2334 0.000000 2  1 (   3   5    )->(   7   8       )
  34     24.316 196118.  6  1  0.2334 0.000000 2  1 (   4   5    )->(   6   8       )
  35     25.183 203119.  6  2  0.2334 0.000000 2  1 (   3   5    )->(   7   8       )
  36     25.183 203119.  6  2  0.2334 0.000000 2  1 (   4   5    )->(   6   8       )
  37     25.266 203781.  2  1  0.2022 0.000000 3  1 (   3   5   5)->(   6   7   7   )
  38     25.266 203781.  2  1  0.2022 0.000000 3  1 (   4   5   5)->(   6   6   7   )
  39     26.047 210087.  2  1  4.5255 0.000000 2  1 (   5   5    )->(   7   8       )
  40     26.047 210087.  2  1  4.5255 0.000000 2  1 (   5   5    )->(   6   8       )
  41     26.883 216825.  2  1  0.1960 0.000000 3  1 (   2   5   5)->(   6   6   7   )
  42     26.883 216825.  2  1  0.1960 0.000000 3  1 (   2   5   5)->(   6   7   7   )
  43     28.453 229489.  6  2  0.2334 0.000000 2  1 (   4   5    )->(   7   8       )
  44     28.453 229489.  6  2  0.2334 0.000000 2  1 (   3   5    )->(   6   8       )
  45     30.197 243559.  6  1  0.1649 0.000000 2  1 (   2   5    )->(   7   8       )
  46     30.197 243559.  6  1  0.1649 0.000000 2  1 (   2   5    )->(   6   8       )
  47     32.231 259960.  6  2  0.1649 0.000000 2  1 (   2   5    )->(   7   8       )
  48     32.231 259960.  6  2  0.1649 0.000000 2  1 (   2   5    )->(   6   8       )
  49     32.310 260600.  6  1  1.5763 0.000000 3  1 (   3   5   5)->(   6   7   8   )
  50     32.310 260600.  6  1  1.5763 0.000000 3  1 (   4   5   5)->(   6   7   8   )
  51     33.276 268392.  2  1  1.5763 0.000000 3  1 (   3   5   5)->(   7   7   8   )
  52     33.276 268392.  2  1  1.5763 0.000000 3  1 (   4   5   5)->(   6   6   8   )
  53     34.334 276925.  2  1  1.5763 0.000000 3  1 (   4   5   5)->(   7   7   8   )
  54     34.334 276925.  2  1  1.5763 0.000000 3  1 (   3   5   5)->(   6   6   8   )
  55     36.230 292212.  6  2  1.5763 0.000000 3  1 (   3   5   5)->(   6   7   8   )
  56     36.230 292212.  6  2  1.5763 0.000000 3  1 (   4   5   5)->(   6   7   8   )
  57     36.382 293445.  2  1  2.0541 0.018654 1  1 (   1        )->(   7           )
  58     36.382 293445.  2  1  2.0541 0.018654 1  1 (   1        )->(   6           )
  59     38.174 307899.  6  1  1.1780 0.000000 3  1 (   2   5   5)->(   6   7   8   )
  60     38.536 310811.  2  1  1.1780 0.000000 3  1 (   2   5   5)->(   7   7   8   )
  61     38.536 310811.  2  1  1.1780 0.000000 3  1 (   2   5   5)->(   6   6   8   )
  62     38.680 311977.  6  2  1.1780 0.000000 3  1 (   2   5   5)->(   6   7   8   )
  63     41.794 337090.  6  1  0.7113 0.000000 2  1 (   1   5    )->(   6   7       )
  64     42.155 340002.  2  1  0.7113 0.000000 2  1 (   1   5    )->(   6   6       )
  65     42.155 340002.  2  1  0.7113 0.000000 2  1 (   1   5    )->(   7   7       )
  66     43.534 351130.  6  2  0.7113 0.000000 2  1 (   1   5    )->(   6   7       )
  67     49.739 401171.  2  1  0.6801 0.068685 1  1 (   1        )->(   8           )
  68     50.337 405999.  2  1  0.6316 0.000000 3  1 (   1   5   5)->(   6   6   7   )
  69     50.337 405999.  2  1  0.6316 0.000000 3  1 (   1   5   5)->(   6   7   7   )
  70     51.939 418914.  6  1  0.6628 0.000000 2  1 (   1   5    )->(   6   8       )
  71     51.939 418914.  6  1  0.6628 0.000000 2  1 (   1   5    )->(   7   8       )
  72     57.126 460755.  6  2  0.6628 0.000000 2  1 (   1   5    )->(   6   8       )
  73     57.126 460755.  6  2  0.6628 0.000000 2  1 (   1   5    )->(   7   8       )
  74     60.352 486775.  6  1  2.0057 0.000000 3  1 (   1   5   5)->(   6   7   8   )
  75     64.448 519806.  6  2  2.0057 0.000000 3  1 (   1   5   5)->(   6   7   8   )
  76     64.809 522718.  2  1  2.0057 0.000000 3  1 (   1   5   5)->(   7   7   8   )
  77     64.809 522718.  2  1  2.0057 0.000000 3  1 (   1   5   5)->(   6   6   8   )

 Depression of ground-state after CI=      -3358. cm**-1 Energy=  -462.7677043 eV
 Dipole moment= -0.491017  0.000000 -0.000000 tot=  0.491017 Debyes


  CI trans.  energy frequency wavelength oscillator--------- polarization---------  dipole  ------ components-----
 st.  symm.    eV      cm - 1       nm      strength       x          y         z       moment     x       y       z 

   2      6.8770965    55468.    180.29  0.000000                                   1.973126   1.973  -0.000  -0.000
   3      6.9768087    56272.    177.71  0.041302  -0.000000   0.005768  -0.999983  1.498484  -1.498   0.000   0.000
   4      6.9768087    56272.    177.71  0.041302   0.000000   0.999983   0.005768  1.498484  -1.498  -0.000  -0.000
   5      7.2409112    58402.    171.23  0.000000                                   1.915962   1.916   0.000  -0.000
   6      7.2409112    58402.    171.23  0.000000                                   1.915962   1.916   0.000   0.000
   7     11.2392892    90651.    110.31  0.166153   0.000000   0.027110  -0.999632  1.906694   1.907  -0.000  -0.000
   8     11.2392892    90651.    110.31  0.166153  -0.000000  -0.999632  -0.027110  1.906694   1.907  -0.000  -0.000
   9     12.2228962    98585.    101.44  0.530306   1.000000  -0.000000   0.000000  1.662442   1.662  -0.000   0.000
  10     13.7356148   110785.     90.26  0.000000                                   1.019470   1.019  -0.000   0.000
  11     13.7356148   110785.     90.26  0.000000                                   1.019470   1.019  -0.000   0.000
  12     13.9879183   112820.     88.64  0.043569  -0.000000  -0.999979  -0.006556  1.117758   1.118  -0.000   0.000
  13     13.9879183   112820.     88.64  0.043569   0.000000   0.006556  -0.999979  1.117758   1.118  -0.000  -0.000
  14     14.2943775   115292.     86.74  0.000000                                   3.101883  -3.102   0.000   0.000
  15     14.2943775   115292.     86.74  0.000000                                   3.101883  -3.102   0.000  -0.000
  16     14.7258624   118772.     84.19  0.005538  -0.000000   0.999997  -0.002350  1.053625   1.054  -0.000   0.000
  17     14.7258624   118772.     84.19  0.005538  -0.000000   0.002350   0.999997  1.053625   1.054   0.000  -0.000
  18     15.0901605   121711.     82.16  0.010110   1.000000   0.000000  -0.000000  2.951133  -2.951   0.000  -0.000
  19     17.6880053   142664.     70.09  0.002030  -0.000000  -0.010238   0.999948  1.064373   1.064  -0.000   0.000
  20     17.6880053   142664.     70.09  0.002030  -0.000000  -0.999948  -0.010238  1.064373   1.064  -0.000  -0.000
  21     18.9573582   152902.     65.40  0.551327   1.000000   0.000000  -0.000000  2.031599  -2.032   0.000   0.000
  22     18.9722209   153022.     65.35  0.000000                                   1.166045   1.166  -0.000   0.000
  23     19.3928287   156414.     63.93  0.028038   0.000000   0.001092   0.999999  1.174373   1.174  -0.000  -0.000
  24     19.3928287   156414.     63.93  0.028038   0.000000  -0.999999   0.001092  1.174373   1.174   0.000   0.000
  25     19.9473429   160887.     62.16  0.000000                                   0.654989   0.655   0.000   0.000
  26     19.9473429   160887.     62.16  0.000000                                   0.654989   0.655   0.000   0.000
  27     20.9229049   168755.     59.26  0.083043   1.000000  -0.000000  -0.000000  0.023099  -0.023   0.000   0.000
  28     21.5189145   173562.     57.62  0.000000                                   0.105540   0.106   0.000  -0.000
  29     22.7688055   183643.     54.45  0.320192  -1.000000  -0.000000   0.000000  1.505661   1.506  -0.000   0.000
  30     24.6436271   198765.     50.31  0.000000                                   0.122027  -0.122  -0.000   0.000
  31     24.6436271   198765.     50.31  0.000000                                   0.122027  -0.122  -0.000   0.000
  32     24.7699806   199784.     50.05  0.000000                                   0.038938   0.039  -0.000   0.000
  33     24.8649346   200550.     49.86  0.001289   1.000000   0.000000   0.000000  0.044562  -0.045  -0.000  -0.000
  34     25.6315746   206733.     48.37  0.000000                                   0.297331   0.297   0.000  -0.000
  35     25.6315746   206733.     48.37  0.000000                                   0.297331   0.297   0.000  -0.000
  36     25.6451196   206842.     48.35  0.000000                                   0.018964  -0.019  -0.000  -0.000
  37     26.2262054   211529.     47.27  0.000000                                   0.418314   0.418   0.000  -0.000
  38     26.2262054   211529.     47.27  0.000000                                   0.418314   0.418   0.000  -0.000
  39     26.2782256   211949.     47.18  0.003368   0.000000  -0.026116   0.999659  2.810061  -2.810   0.000   0.000
  40     26.2782256   211949.     47.18  0.003368  -0.000000   0.999659   0.026116  2.810061  -2.810   0.000   0.000
  41     27.1514016   218991.     45.66  0.004054   1.000000  -0.000000   0.000000  0.307429   0.307   0.000  -0.000
  42     27.5888925   222520.     44.94  0.000605   0.000000  -0.775206   0.631709  0.522231  -0.522   0.000   0.000
  43     27.5888925   222520.     44.94  0.000605  -0.000000   0.631709   0.775206  0.522231  -0.522   0.000  -0.000
  44     30.7590385   248089.     40.31  0.000033  -0.000000  -0.068143   0.997676  0.098447   0.098   0.000   0.000
  45     30.7590385   248089.     40.31  0.000033   0.000000   0.997676   0.068143  0.098447   0.098  -0.000   0.000
  46     31.2265098   251859.     39.70  0.000117   0.000000   0.015494   0.999880  0.704217  -0.704   0.000   0.000
  47     31.2265098   251859.     39.70  0.000117  -0.000000  -0.999880   0.015494  0.704217  -0.704   0.000   0.000
  48     32.7607419   264234.     37.85  0.000027  -0.000000   0.200412  -0.979712  1.239590  -1.240   0.000  -0.000
  49     32.7607419   264234.     37.85  0.000027   0.000000   0.979712   0.200412  1.239590  -1.240   0.000   0.000
  50     33.1054535   267014.     37.45  0.000000                                   1.455068  -1.455   0.000  -0.000
  51     33.1054535   267014.     37.45  0.000000                                   1.455068  -1.455   0.000  -0.000
  52     33.2676824   268323.     37.27  0.017829   1.000000   0.000000  -0.000000  0.142299   0.142  -0.000   0.000
  53     34.0843491   274910.     36.38  0.000006  -0.000000  -0.999813  -0.019354  1.430530  -1.431   0.000  -0.000
  54     34.0843491   274910.     36.38  0.000006   0.000000  -0.019354   0.999813  1.430530  -1.431   0.000  -0.000
  55     36.6590059   295676.     33.82  0.016697   0.000000  -0.067037   0.997750  1.625761   1.626  -0.000  -0.000
  56     36.6590059   295676.     33.82  0.016697   0.000000  -0.997750  -0.067037  1.625761   1.626  -0.000   0.000
  57     38.7799110   312782.     31.97  0.000000                                   1.185027  -1.185   0.000  -0.000
  58     38.7799110   312782.     31.97  0.000000                                   1.185027  -1.185   0.000  -0.000
  59     39.0571680   315018.     31.74  0.000000                                   1.299438  -1.299  -0.000  -0.000
  60     39.6281732   319624.     31.29  0.000011  -1.000000   0.000000   0.000000  1.191683  -1.192   0.000  -0.000
  61     39.9771766   322438.     31.01  0.000030  -0.000000  -0.032925  -0.999458  1.606802  -1.607   0.000  -0.000
  62     39.9771766   322438.     31.01  0.000030  -0.000000   0.999458  -0.032925  1.606802  -1.607   0.000   0.000
  63     42.3290958   341408.     29.29  0.000000                                   0.974943   0.975  -0.000   0.000
  64     42.3290958   341408.     29.29  0.000000                                   0.974943   0.975   0.000  -0.000
  65     43.1038453   347657.     28.76  0.000479   1.000000   0.000000  -0.000000  0.949824   0.950   0.000   0.000
  66     43.9939919   354836.     28.18  0.000000                                   0.586982   0.587  -0.000  -0.000
  67     50.7178475   409068.     24.45  0.299734  -1.000000  -0.000000   0.000000  0.542601   0.543  -0.000  -0.000
  68     50.9369062   410835.     24.34  0.000035  -0.000000   0.043126   0.999070  0.500975  -0.501   0.000   0.000
  69     50.9369062   410835.     24.34  0.000035   0.000000   0.999070  -0.043126  0.500975  -0.501   0.000  -0.000
  70     52.6926246   424996.     23.53  0.001656  -0.000000  -0.710361  -0.703838  0.037924  -0.038   0.000   0.000
  71     52.6926246   424996.     23.53  0.001656   0.000000   0.703838  -0.710361  0.037924  -0.038   0.000  -0.000
  72     58.0559056   468254.     21.36  0.000067   0.000000   0.998402  -0.056506  0.717022  -0.717   0.000   0.000
  73     58.0559056   468254.     21.36  0.000067  -0.000000  -0.056506  -0.998402  0.717022  -0.717   0.000   0.000
  74     60.9080652   491258.     20.36  0.000000                                   1.671182  -1.671   0.000  -0.000
  75     65.1845896   525751.     19.02  0.000000                                   2.122971  -2.123   0.000  -0.000
  76     65.1845896   525751.     19.02  0.000000                                   2.122971  -2.123   0.000  -0.000
  77     66.0141454   532441.     18.78  0.000108  -1.000000   0.000000   0.000000  2.107915  -2.108   0.000  -0.000

 Polarizability (au  ) xx=   13.50 xy=    0.00 yy=    5.58 xz=    0.00 yz=   -0.00 zz=    5.58
 Polarizability (A**3) xx=    2.00 xy=    0.00 yy=    0.83 xz=    0.00 yz=   -0.00 zz=    0.83


 Major CI contributions to CI states

State    1  0.0000     CI coeff  CI percent
    Config       1  -0.99156975  0.98321056
    Config      15   0.05499856  0.00302484
    Config      16   0.05499856  0.00302484
    Config      43   0.06272418  0.00393432
    Config      44   0.06272418  0.00393432
 Total coeff printed             0.99712889
  
State    2  6.8771     CI coeff  CI percent
    Config       4   0.70239243  0.49335513
    Config       5  -0.70239243  0.49335513
    Config      28   0.04358188  0.00189938
    Config      29  -0.04358188  0.00189938
    Config      33  -0.04488044  0.00201425
    Config      34   0.04488044  0.00201425
    Config      35  -0.05214648  0.00271926
    Config      36   0.05214648  0.00271926
 Total coeff printed             0.99997603
  
State    3  6.9768     CI coeff  CI percent
    Config       2   0.99146265  0.98299818
    Config       9   0.06771454  0.00458526
    Config      47  -0.06510829  0.00423909
 Total coeff printed             0.99182253
  
State    4  6.9768     CI coeff  CI percent
    Config       3  -0.99146265  0.98299818
    Config       8   0.06771454  0.00458526
    Config      48   0.06510829  0.00423909
 Total coeff printed             0.99182253
  
State    5  7.2409     CI coeff  CI percent
    Config       6   0.69817662  0.48745059
    Config       7  -0.69817662  0.48745059
    Config      15  -0.04267450  0.00182111
    Config      16   0.04267450  0.00182111
    Config      26   0.06411808  0.00411113
    Config      27  -0.06411808  0.00411113
    Config      37   0.04268352  0.00182188
    Config      38  -0.04268352  0.00182188
    Config      43   0.06843661  0.00468357
    Config      44  -0.06843661  0.00468357
 Total coeff printed             0.99977656
  
State    6  7.2409     CI coeff  CI percent
    Config       4  -0.69817662  0.48745059
    Config       5  -0.69817662  0.48745059
    Config      12  -0.06035086  0.00364223
    Config      25  -0.09067665  0.00822226
    Config      28  -0.04268352  0.00182188
    Config      29  -0.04268352  0.00182188
    Config      33  -0.04479072  0.00200621
    Config      34  -0.04479072  0.00200621
    Config      35  -0.05208261  0.00271260
    Config      36  -0.05208261  0.00271260
 Total coeff printed             0.99984704
  
State    7 11.2393     CI coeff  CI percent
    Config       2   0.05075401  0.00257597
    Config       9  -0.84262280  0.71001318
    Config      11   0.31674271  0.10032594
    Config      14   0.04590700  0.00210745
    Config      17  -0.41094481  0.16887564
    Config      21  -0.08910761  0.00794017
    Config      41  -0.05160734  0.00266332
    Config      45   0.04778769  0.00228366
 Total coeff printed             0.99678533
  
State    8 11.2393     CI coeff  CI percent
    Config       3   0.05075401  0.00257597
    Config       8   0.84262280  0.71001318
    Config      10   0.31674271  0.10032594
    Config      13  -0.04590700  0.00210745
    Config      18   0.41094481  0.16887564
    Config      22   0.08910761  0.00794017
    Config      42   0.05160734  0.00266332
    Config      46   0.04778769  0.00228366
 Total coeff printed             0.99678533
  
State    9 12.2229     CI coeff  CI percent
    Config       6  -0.64072346  0.41052655
    Config       7  -0.64072346  0.41052655
    Config      15  -0.07553161  0.00570502
    Config      16  -0.07553161  0.00570502
    Config      23  -0.36523926  0.13339971
    Config      26   0.05296109  0.00280488
    Config      27   0.05296109  0.00280488
    Config      30   0.11559739  0.01336276
    Config      43   0.05663551  0.00320758
    Config      44   0.05663551  0.00320758
    Config      67   0.07602466  0.00577975
 Total coeff printed             0.99703029
  
State   10 13.7356     CI coeff  CI percent
    Config      10  -0.63152590  0.39882497
    Config      13  -0.49970908  0.24970916
    Config      18   0.49970908  0.24970916
    Config      22  -0.31716456  0.10059336
 Total coeff printed             0.99883665
  
State   11 13.7356     CI coeff  CI percent
    Config      11   0.63152590  0.39882497
    Config      14  -0.49970908  0.24970916
    Config      17   0.49970908  0.24970916
    Config      21  -0.31716456  0.10059336
 Total coeff printed             0.99883665
  
State   12 13.9879     CI coeff  CI percent
    Config       3   0.06676051  0.00445697
    Config       8   0.35614695  0.12684065
    Config      10  -0.70460540  0.49646877
    Config      13   0.46237906  0.21379439
    Config      18  -0.22055474  0.04864439
    Config      22   0.32698591  0.10691979
 Total coeff printed             0.99712495
  
State   13 13.9879     CI coeff  CI percent
    Config       2   0.06676051  0.00445697
    Config       9  -0.35614695  0.12684065
    Config      11  -0.70460540  0.49646877
    Config      14  -0.46237906  0.21379439
    Config      17   0.22055474  0.04864439
    Config      21  -0.32698591  0.10691979
 Total coeff printed             0.99712495
  
State   14 14.2944     CI coeff  CI percent
    Config      12   0.99451692  0.98906390
    Config      25  -0.05239410  0.00274514
    Config      28  -0.04792740  0.00229704
    Config      29  -0.04792740  0.00229704
 Total coeff printed             0.99640311
  
State   15 14.2944     CI coeff  CI percent
    Config      15  -0.70322966  0.49453195
    Config      16   0.70322966  0.49453195
    Config      37  -0.04792740  0.00229704
    Config      38   0.04792740  0.00229704
 Total coeff printed             0.99365797
  
State   16 14.7259     CI coeff  CI percent
    Config       8  -0.17755912  0.03152724
    Config      13   0.72713628  0.52872718
    Config      18   0.51747459  0.26777995
    Config      20   0.05868849  0.00344434
    Config      22  -0.40039044  0.16031250
    Config      42  -0.06915440  0.00478233
 Total coeff printed             0.99657354
  
State   17 14.7259     CI coeff  CI percent
    Config       9   0.17755912  0.03152724
    Config      14  -0.72713628  0.52872718
    Config      17  -0.51747459  0.26777995
    Config      19   0.05868849  0.00344434
    Config      21   0.40039044  0.16031250
    Config      41   0.06915440  0.00478233
 Total coeff printed             0.99657354
  
State   18 15.0902     CI coeff  CI percent
    Config       1  -0.07542680  0.00568920
    Config       6   0.04154534  0.00172602
    Config       7   0.04154534  0.00172602
    Config      15  -0.69604304  0.48447591
    Config      16  -0.69604304  0.48447591
    Config      23   0.13325201  0.01775610
 Total coeff printed             0.99584915
  
State   19 17.6880     CI coeff  CI percent
    Config      14  -0.04633053  0.00214652
    Config      19  -0.99147374  0.98302018
    Config      21   0.05030265  0.00253036
    Config      47   0.06098650  0.00371935
    Config      52  -0.05340586  0.00285219
    Config      53  -0.05559632  0.00309095
 Total coeff printed             0.99735954
  
State   20 17.6880     CI coeff  CI percent
    Config      13  -0.04633053  0.00214652
    Config      20   0.99147374  0.98302018
    Config      22   0.05030265  0.00253036
    Config      48  -0.06098650  0.00371935
    Config      51   0.05340586  0.00285219
    Config      54   0.05559632  0.00309095
 Total coeff printed             0.99735954
  
State   21 18.9574     CI coeff  CI percent
    Config       6  -0.18686143  0.03491719
    Config       7  -0.18686143  0.03491719
    Config      15   0.04990718  0.00249073
    Config      16   0.04990718  0.00249073
    Config      23   0.78757883  0.62028042
    Config      26   0.27683598  0.07663816
    Config      27   0.27683598  0.07663816
    Config      30   0.30854348  0.09519908
    Config      31  -0.12554205  0.01576081
    Config      32  -0.12554205  0.01576081
    Config      37   0.08613037  0.00741844
    Config      38   0.08613037  0.00741844
    Config      43  -0.04771207  0.00227644
    Config      44  -0.04771207  0.00227644
    Config      67   0.06389810  0.00408297
 Total coeff printed             0.99856600
  
State   22 18.9722     CI coeff  CI percent
    Config      24   0.91212648  0.83197472
    Config      28   0.28856362  0.08326896
    Config      29  -0.28856362  0.08326896
 Total coeff printed             0.99851265
  
State   23 19.3928     CI coeff  CI percent
    Config       9   0.32185549  0.10359095
    Config      17  -0.48925397  0.23936944
    Config      21  -0.75374310  0.56812866
    Config      39   0.25825149  0.06669383
    Config      45   0.08470118  0.00717429
    Config      47  -0.07366459  0.00542647
    Config      73  -0.07838608  0.00614438
 Total coeff printed             0.99652803
  
State   24 19.3928     CI coeff  CI percent
    Config       8   0.32185549  0.10359095
    Config      18  -0.48925397  0.23936944
    Config      22  -0.75374310  0.56812866
    Config      40  -0.25825149  0.06669383
    Config      46  -0.08470118  0.00717429
    Config      48   0.07366459  0.00542647
    Config      72   0.07838608  0.00614438
 Total coeff printed             0.99652803
  
State   25 19.9473     CI coeff  CI percent
    Config       6   0.07964060  0.00634263
    Config       7  -0.07964060  0.00634263
    Config      15   0.05045943  0.00254615
    Config      16  -0.05045943  0.00254615
    Config      26  -0.63033173  0.39731809
    Config      27   0.63033173  0.39731809
    Config      37  -0.30443880  0.09268298
    Config      38   0.30443880  0.09268298
 Total coeff printed             0.99777971
  
State   26 19.9473     CI coeff  CI percent
    Config       4   0.07964060  0.00634263
    Config       5   0.07964060  0.00634263
    Config      12  -0.07136041  0.00509231
    Config      25  -0.89142369  0.79463619
    Config      28  -0.30443880  0.09268298
    Config      29  -0.30443880  0.09268298
    Config      63   0.04610339  0.00212552
 Total coeff printed             0.99990523
  
State   27 20.9229     CI coeff  CI percent
    Config       6  -0.10324555  0.01065964
    Config       7  -0.10324555  0.01065964
    Config      15   0.05180623  0.00268388
    Config      16   0.05180623  0.00268388
    Config      23   0.28892655  0.08347855
    Config      26  -0.56455352  0.31872068
    Config      27  -0.56455352  0.31872068
    Config      30   0.21384503  0.04572970
    Config      31  -0.09585955  0.00918905
    Config      32  -0.09585955  0.00918905
    Config      37  -0.30135584  0.09081534
    Config      38  -0.30135584  0.09081534
 Total coeff printed             0.99334545
  
State   28 21.5189     CI coeff  CI percent
    Config       4  -0.04101779  0.00168246
    Config       5   0.04101779  0.00168246
    Config      24  -0.40917468  0.16742392
    Config      28   0.64302245  0.41347787
    Config      29  -0.64302245  0.41347787
 Total coeff printed             0.99774458
  
State   29 22.7688     CI coeff  CI percent
    Config       6   0.15718340  0.02470662
    Config       7   0.15718340  0.02470662
    Config      23  -0.36601893  0.13396986
    Config      26   0.04312253  0.00185955
    Config      27   0.04312253  0.00185955
    Config      30   0.77920294  0.60715722
    Config      31  -0.26635136  0.07094304
    Config      32  -0.26635136  0.07094304
    Config      37   0.05926800  0.00351270
    Config      38   0.05926800  0.00351270
    Config      43  -0.14232839  0.02025737
    Config      44  -0.14232839  0.02025737
    Config      60   0.05489447  0.00301340
    Config      61   0.05489447  0.00301340
    Config      67  -0.08279915  0.00685570
 Total coeff printed             0.99656815
  
State   30 24.6436     CI coeff  CI percent
    Config      25  -0.04022099  0.00161773
    Config      28   0.05066173  0.00256661
    Config      29   0.05066173  0.00256661
    Config      33   0.68039970  0.46294375
    Config      34   0.68039970  0.46294375
    Config      35  -0.17858911  0.03189407
    Config      36  -0.17858911  0.03189407
 Total coeff printed             0.99642659
  
State   31 24.6436     CI coeff  CI percent
    Config      31  -0.65658848  0.43110843
    Config      32   0.65658848  0.43110843
    Config      37  -0.05066173  0.00256661
    Config      38   0.05066173  0.00256661
    Config      43  -0.25244681  0.06372939
    Config      44   0.25244681  0.06372939
 Total coeff printed             0.99480886
  
State   32 24.7700     CI coeff  CI percent
    Config       4   0.04978679  0.00247872
    Config       5  -0.04978679  0.00247872
    Config      33   0.69824260  0.48754273
    Config      34  -0.69824260  0.48754273
    Config      35   0.08998524  0.00809734
    Config      36  -0.08998524  0.00809734
 Total coeff printed             0.99623760
  
State   33 24.8649     CI coeff  CI percent
    Config      23  -0.05068826  0.00256930
    Config      30  -0.39451456  0.15564174
    Config      31  -0.63289026  0.40055008
    Config      32  -0.63289026  0.40055008
    Config      43   0.13577045  0.01843362
    Config      44   0.13577045  0.01843362
 Total coeff printed             0.99617843
  
State   34 25.6316     CI coeff  CI percent
    Config       6  -0.05906747  0.00348897
    Config       7   0.05906747  0.00348897
    Config      26  -0.14329499  0.02053346
    Config      27   0.14329499  0.02053346
    Config      31  -0.25340490  0.06421405
    Config      32   0.25340490  0.06421405
    Config      37   0.28345908  0.08034905
    Config      38  -0.28345908  0.08034905
    Config      43   0.57032707  0.32527297
    Config      44  -0.57032707  0.32527297
    Config      60  -0.06866979  0.00471554
    Config      61   0.06866979  0.00471554
 Total coeff printed             0.99714805
  
State   35 25.6316     CI coeff  CI percent
    Config       4   0.05906747  0.00348897
    Config       5   0.05906747  0.00348897
    Config      25   0.20264972  0.04106691
    Config      28  -0.28345908  0.08034905
    Config      29  -0.28345908  0.08034905
    Config      33  -0.12742797  0.01623789
    Config      34  -0.12742797  0.01623789
    Config      35  -0.61094118  0.37324912
    Config      36  -0.61094118  0.37324912
    Config      59   0.09711375  0.00943108
 Total coeff printed             0.99714805
  
State   36 25.6451     CI coeff  CI percent
    Config       4   0.04496374  0.00202174
    Config       5  -0.04496374  0.00202174
    Config      33  -0.09165029  0.00839978
    Config      34   0.09165029  0.00839978
    Config      35   0.69821747  0.48750763
    Config      36  -0.69821747  0.48750763
    Config      62   0.04538636  0.00205992
 Total coeff printed             0.99791822
  
State   37 26.2262     CI coeff  CI percent
    Config      26   0.26953418  0.07264867
    Config      27  -0.26953418  0.07264867
    Config      31  -0.06795265  0.00461756
    Config      32   0.06795265  0.00461756
    Config      37  -0.55868049  0.31212389
    Config      38   0.55868049  0.31212389
    Config      43   0.32134716  0.10326400
    Config      44  -0.32134716  0.10326400
    Config      60   0.05555621  0.00308649
    Config      61  -0.05555621  0.00308649
    Config      76  -0.05040431  0.00254059
    Config      77   0.05040431  0.00254059
 Total coeff printed             0.99656242
  
State   38 26.2262     CI coeff  CI percent
    Config      25  -0.38117889  0.14529735
    Config      28   0.55868049  0.31212389
    Config      29   0.55868049  0.31212389
    Config      33  -0.13253511  0.01756556
    Config      34  -0.13253511  0.01756556
    Config      35  -0.30052621  0.09031601
    Config      36  -0.30052621  0.09031601
    Config      59  -0.07856834  0.00617298
    Config      63   0.04073456  0.00165930
    Config      75  -0.07128246  0.00508119
 Total coeff printed             0.99822172
  
State   39 26.2782     CI coeff  CI percent
    Config       9   0.13900586  0.01932263
    Config      17  -0.10440804  0.01090104
    Config      21  -0.12214670  0.01491982
    Config      39  -0.85136551  0.72482322
    Config      41  -0.38555015  0.14864892
    Config      45   0.24504222  0.06004569
    Config      47   0.07610970  0.00579269
    Config      49   0.05464471  0.00298604
    Config      53  -0.05543786  0.00307336
    Config      71   0.05012164  0.00251218
    Config      73  -0.06047232  0.00365690
 Total coeff printed             0.99668249
  
State   40 26.2782     CI coeff  CI percent
    Config       8  -0.13900586  0.01932263
    Config      18   0.10440804  0.01090104
    Config      22   0.12214670  0.01491982
    Config      40  -0.85136551  0.72482322
    Config      42   0.38555015  0.14864892
    Config      46   0.24504222  0.06004569
    Config      48   0.07610970  0.00579269
    Config      50  -0.05464471  0.00298604
    Config      54  -0.05543786  0.00307336
    Config      70   0.05012164  0.00251218
    Config      72  -0.06047232  0.00365690
 Total coeff printed             0.99668249
  
State   41 27.1514     CI coeff  CI percent
    Config       6  -0.07185602  0.00516329
    Config       7  -0.07185602  0.00516329
    Config      23   0.04552501  0.00207253
    Config      26  -0.30775568  0.09471356
    Config      27  -0.30775568  0.09471356
    Config      37   0.62279056  0.38786809
    Config      38   0.62279056  0.38786809
    Config      60  -0.08535772  0.00728594
    Config      61  -0.08535772  0.00728594
    Config      76   0.05715913  0.00326717
    Config      77   0.05715913  0.00326717
 Total coeff printed             0.99866860
  
State   42 27.5889     CI coeff  CI percent
    Config      21  -0.07407756  0.00548748
    Config      22  -0.09090473  0.00826367
    Config      39  -0.22244129  0.04948013
    Config      40   0.27297020  0.07451273
    Config      41   0.57879698  0.33500595
    Config      42   0.71027426  0.50448953
    Config      45   0.07423350  0.00551061
    Config      46  -0.09109609  0.00829850
 Total coeff printed             0.99104859
  
State   43 27.5889     CI coeff  CI percent
    Config      21  -0.09090473  0.00826367
    Config      22   0.07407756  0.00548748
    Config      39  -0.27297020  0.07451273
    Config      40  -0.22244129  0.04948013
    Config      41   0.71027426  0.50448953
    Config      42  -0.57879698  0.33500595
    Config      45   0.09109609  0.00829850
    Config      46   0.07423350  0.00551061
 Total coeff printed             0.99104859
  
State   44 30.7590     CI coeff  CI percent
    Config      17  -0.08908468  0.00793608
    Config      21  -0.11850724  0.01404397
    Config      39  -0.24758548  0.06129857
    Config      45  -0.88715187  0.78703845
    Config      46   0.06059419  0.00367166
    Config      47   0.05692181  0.00324009
    Config      49  -0.25636919  0.06572516
    Config      52  -0.04448395  0.00197882
    Config      53   0.16587544  0.02751466
    Config      55   0.12525754  0.01568945
    Config      57   0.07592965  0.00576531
    Config      73  -0.06181237  0.00382077
 Total coeff printed             0.99772299
  
State   45 30.7590     CI coeff  CI percent
    Config      18   0.08908468  0.00793608
    Config      22   0.11850724  0.01404397
    Config      40  -0.24758548  0.06129857
    Config      45  -0.06059419  0.00367166
    Config      46  -0.88715187  0.78703845
    Config      48   0.05692181  0.00324009
    Config      50   0.25636919  0.06572516
    Config      51  -0.04448395  0.00197882
    Config      54   0.16587544  0.02751466
    Config      56   0.12525754  0.01568945
    Config      58   0.07592965  0.00576531
    Config      72  -0.06181237  0.00382077
 Total coeff printed             0.99772299
  
State   46 31.2265     CI coeff  CI percent
    Config       9   0.04011917  0.00160955
    Config      19   0.07205957  0.00519258
    Config      39   0.09614756  0.00924435
    Config      47   0.88728059  0.78726684
    Config      53  -0.27191338  0.07393689
    Config      55   0.33796358  0.11421938
    Config      71   0.04803536  0.00230740
 Total coeff printed             0.99377699
  
State   47 31.2265     CI coeff  CI percent
    Config       8   0.04011917  0.00160955
    Config      20  -0.07205957  0.00519258
    Config      40  -0.09614756  0.00924435
    Config      48  -0.88728059  0.78726684
    Config      54   0.27191338  0.07393689
    Config      56  -0.33796358  0.11421938
    Config      70  -0.04803536  0.00230740
 Total coeff printed             0.99377699
  
State   48 32.7607     CI coeff  CI percent
    Config      45  -0.32985052  0.10880137
    Config      46   0.06747489  0.00455286
    Config      47  -0.04295016  0.00184472
    Config      49   0.73411959  0.53893157
    Config      50   0.15017298  0.02255192
    Config      51  -0.05438863  0.00295812
    Config      52   0.26587847  0.07069136
    Config      53  -0.39974306  0.15979451
    Config      54   0.08177224  0.00668670
    Config      55  -0.27552815  0.07591576
    Config      56   0.05636259  0.00317674
 Total coeff printed             0.99590564
  
State   49 32.7607     CI coeff  CI percent
    Config      45   0.06747489  0.00455286
    Config      46   0.32985052  0.10880137
    Config      48   0.04295016  0.00184472
    Config      49  -0.15017298  0.02255192
    Config      50   0.73411959  0.53893157
    Config      51  -0.26587847  0.07069136
    Config      52  -0.05438863  0.00295812
    Config      53   0.08177224  0.00668670
    Config      54   0.39974306  0.15979451
    Config      55   0.05636259  0.00317674
    Config      56   0.27552815  0.07591576
 Total coeff printed             0.99590564
  
State   50 33.1055     CI coeff  CI percent
    Config      49  -0.59571160  0.35487230
    Config      52   0.49967513  0.24967523
    Config      53  -0.49967513  0.24967523
    Config      55  -0.38010283  0.14447816
 Total coeff printed             0.99870093
  
State   51 33.1055     CI coeff  CI percent
    Config      50  -0.59571160  0.35487230
    Config      51  -0.49967513  0.24967523
    Config      54   0.49967513  0.24967523
    Config      56   0.38010283  0.14447816
 Total coeff printed             0.99870093
  
State   52 33.2677     CI coeff  CI percent
    Config       1  -0.08053289  0.00648555
    Config       6  -0.07025540  0.00493582
    Config       7  -0.07025540  0.00493582
    Config      30  -0.27502071  0.07563639
    Config      31  -0.05571132  0.00310375
    Config      32  -0.05571132  0.00310375
    Config      43  -0.66485298  0.44202948
    Config      44  -0.66485298  0.44202948
    Config      60   0.04865294  0.00236711
    Config      61   0.04865294  0.00236711
    Config      64   0.06514199  0.00424348
    Config      65   0.06514199  0.00424348
    Config      67   0.05628327  0.00316781
 Total coeff printed             0.99864903
  
State   53 34.0843     CI coeff  CI percent
    Config      20   0.06781041  0.00459825
    Config      46  -0.06586560  0.00433828
    Config      50   0.10147587  0.01029735
    Config      51  -0.81746803  0.66825398
    Config      54  -0.45704592  0.20889097
    Config      56  -0.31476643  0.09907791
    Config      69   0.04877233  0.00237874
 Total coeff printed             0.99783548
  
State   54 34.0843     CI coeff  CI percent
    Config      19  -0.06781041  0.00459825
    Config      45   0.06586560  0.00433828
    Config      49   0.10147587  0.01029735
    Config      52   0.81746803  0.66825398
    Config      53   0.45704592  0.20889097
    Config      55   0.31476643  0.09907791
    Config      68  -0.04877233  0.00237874
 Total coeff printed             0.99783548
  
State   55 36.6590     CI coeff  CI percent
    Config      39  -0.04737763  0.00224464
    Config      45  -0.07110374  0.00505574
    Config      53   0.04202442  0.00176605
    Config      55  -0.06683671  0.00446715
    Config      57  -0.98196803  0.96426122
    Config      58   0.06597652  0.00435290
    Config      68   0.06357713  0.00404205
    Config      71  -0.10336669  0.01068467
 Total coeff printed             0.99687442
  
State   56 36.6590     CI coeff  CI percent
    Config      40   0.04737763  0.00224464
    Config      46   0.07110374  0.00505574
    Config      54  -0.04202442  0.00176605
    Config      56   0.06683671  0.00446715
    Config      57   0.06597652  0.00435290
    Config      58   0.98196803  0.96426122
    Config      69  -0.06357713  0.00404205
    Config      70   0.10336669  0.01068467
 Total coeff printed             0.99687442
  
State   57 38.7799     CI coeff  CI percent
    Config      25  -0.05024752  0.00252481
    Config      28   0.07307632  0.00534015
    Config      29   0.07307632  0.00534015
    Config      59   0.98844755  0.97702857
    Config      63  -0.07505572  0.00563336
 Total coeff printed             0.99586704
  
State   58 38.7799     CI coeff  CI percent
    Config      37   0.07307632  0.00534015
    Config      38  -0.07307632  0.00534015
    Config      60   0.69893797  0.48851428
    Config      61  -0.69893797  0.48851428
    Config      64   0.05307241  0.00281668
    Config      65  -0.05307241  0.00281668
 Total coeff printed             0.99334222
  
State   59 39.0572     CI coeff  CI percent
    Config      62  -0.99496003  0.98994546
    Config      66  -0.05672291  0.00321749
    Config      74   0.05455694  0.00297646
 Total coeff printed             0.99613941
  
State   60 39.6282     CI coeff  CI percent
    Config      30  -0.06088728  0.00370726
    Config      37   0.07482652  0.00559901
    Config      38   0.07482652  0.00559901
    Config      43   0.05585038  0.00311927
    Config      44   0.05585038  0.00311927
    Config      60   0.69461977  0.48249663
    Config      61   0.69461977  0.48249663
    Config      64  -0.06311409  0.00398339
    Config      65  -0.06311409  0.00398339
 Total coeff printed             0.99410384
  
State   61 39.9772     CI coeff  CI percent
    Config       2   0.07460748  0.00556628
    Config      39   0.04405172  0.00194055
    Config      47   0.42833728  0.18347283
    Config      53   0.51221357  0.26236274
    Config      55  -0.73041884  0.53351168
    Config      57   0.07266400  0.00528006
    Config      68   0.06009428  0.00361132
 Total coeff printed             0.99574545
  
State   62 39.9772     CI coeff  CI percent
    Config       3  -0.07460748  0.00556628
    Config      40  -0.04405172  0.00194055
    Config      48  -0.42833728  0.18347283
    Config      54  -0.51221357  0.26236274
    Config      56   0.73041884  0.53351168
    Config      58  -0.07266400  0.00528006
    Config      69  -0.06009428  0.00361132
 Total coeff printed             0.99574545
  
State   63 42.3291     CI coeff  CI percent
    Config      43  -0.04091861  0.00167433
    Config      44   0.04091861  0.00167433
    Config      60  -0.05180067  0.00268331
    Config      61   0.05180067  0.00268331
    Config      64   0.70274877  0.49385583
    Config      65  -0.70274877  0.49385583
 Total coeff printed             0.99642695
  
State   64 42.3291     CI coeff  CI percent
    Config      25  -0.04874326  0.00237591
    Config      59  -0.07325721  0.00536662
    Config      63  -0.99383684  0.98771166
 Total coeff printed             0.99545418
  
State   65 43.1038     CI coeff  CI percent
    Config      43   0.06863317  0.00471051
    Config      44   0.06863317  0.00471051
    Config      60   0.05815471  0.00338197
    Config      61   0.05815471  0.00338197
    Config      64   0.69921999  0.48890860
    Config      65   0.69921999  0.48890860
 Total coeff printed             0.99400216
  
State   66 43.9940     CI coeff  CI percent
    Config      62  -0.05699684  0.00324864
    Config      66   0.99596619  0.99194865
    Config      74   0.04629174  0.00214293
 Total coeff printed             0.99734021
  
State   67 50.7178     CI coeff  CI percent
    Config       6   0.08280988  0.00685748
    Config       7   0.08280988  0.00685748
    Config      23  -0.05778420  0.00333901
    Config      30   0.05712498  0.00326326
    Config      67   0.98519489  0.97060897
    Config      76  -0.05587470  0.00312198
    Config      77  -0.05587470  0.00312198
 Total coeff printed             0.99717016
  
State   68 50.9369     CI coeff  CI percent
    Config      55  -0.07139805  0.00509768
    Config      57  -0.06373350  0.00406196
    Config      68  -0.99173981  0.98354786
    Config      69  -0.04280957  0.00183266
 Total coeff printed             0.99454016
  
State   69 50.9369     CI coeff  CI percent
    Config      56  -0.07139805  0.00509768
    Config      58  -0.06373350  0.00406196
    Config      68   0.04280957  0.00183266
    Config      69  -0.99173981  0.98354786
 Total coeff printed             0.99454016
  
State   70 52.6926     CI coeff  CI percent
    Config      57   0.07142859  0.00510204
    Config      58   0.07209062  0.00519706
    Config      70  -0.70361558  0.49507489
    Config      71  -0.69715415  0.48602391
 Total coeff printed             0.99139790
  
State   71 52.6926     CI coeff  CI percent
    Config      57   0.07209062  0.00519706
    Config      58  -0.07142859  0.00510204
    Config      70   0.69715415  0.48602391
    Config      71  -0.70361558  0.49507489
 Total coeff printed             0.99139790
  
State   72 58.0559     CI coeff  CI percent
    Config      18  -0.05705691  0.00325549
    Config      22  -0.07712899  0.00594888
    Config      40   0.05703512  0.00325300
    Config      72  -0.99029722  0.98068859
    Config      73   0.05604695  0.00314126
 Total coeff printed             0.99628723
  
State   73 58.0559     CI coeff  CI percent
    Config      17  -0.05705691  0.00325549
    Config      21  -0.07712899  0.00594888
    Config      39  -0.05703512  0.00325300
    Config      72   0.05604695  0.00314126
    Config      73   0.99029722  0.98068859
 Total coeff printed             0.99628723
  
State   74 60.9081     CI coeff  CI percent
    Config      62   0.05740901  0.00329579
    Config      66  -0.04295126  0.00184481
    Config      74   0.99694968  0.99390866
 Total coeff printed             0.99904927
  
State   75 65.1846     CI coeff  CI percent
    Config      37   0.05245151  0.00275116
    Config      38  -0.05245151  0.00275116
    Config      76  -0.70399313  0.49560632
    Config      77   0.70399313  0.49560632
 Total coeff printed             0.99671497
  
State   76 65.1846     CI coeff  CI percent
    Config      28   0.05245151  0.00275116
    Config      29   0.05245151  0.00275116
    Config      75   0.99559663  0.99121265
 Total coeff printed             0.99671497
  
State   77 66.0141     CI coeff  CI percent
    Config      37  -0.05259655  0.00276640
    Config      38  -0.05259655  0.00276640
    Config      67   0.07897263  0.00623668
    Config      76   0.70163586  0.49229288
    Config      77   0.70163586  0.49229288
 Total coeff printed             0.99635523
  

 **********************
 *                    *
 * JOB ENDED NORMALLY *
 *                    *
 **********************



 TOTAL JOB TIME:             0.06 SECONDS

 == MOPAC DONE ==
