 *******************************************************************************
 ** Cite this program as: MOPAC2016, Version: 21.298M, James J. P. Stewart,   **
 **                           web-site: HTTP://OpenMOPAC.net.                 **
 *******************************************************************************
 **                                                                           **
 **                                MOPAC2016                                  **
 **                                                                           **
 *******************************************************************************

                              INDO CALCULATION RESULTS

 *******************************************************************************
 *  CALCULATION DONE:                                Fri Oct 29 13:45:00 2021  *
 *  INDO       - The INDO Hamiltonian to be used
 *  MRCI       -  Use multi-reference CI (specify ref dets using C.A.S.)
 * C.A.S.=(N,M)-  1 DOUBLY FILLED LEVELS USED IN A
 *             CAS REF DET GENERATION INVOLVING  3 M.O.'S
 *  T=         - A TIME OF 172800.0 SECONDS REQUESTED
 *  DUMP=N     - RESTART FILE WRITTEN EVERY 7200.0 SECONDS REQUESTED
 *******************************************************************************
INDO MRCI C.A.S.=(3,1)
 Carbon Monoxide
 INDO
   ATOM   CHEMICAL          X               Y               Z
  NUMBER   SYMBOL      (ANGSTROMS)     (ANGSTROMS)     (ANGSTROMS)
 
     1       C          0.00000000      0.00000000      0.00000000   
     2       O          1.17300000      0.00000000      0.00000000   
 


          CARTESIAN COORDINATES 

    NO.       ATOM           X           Y           Z

     1         C          0.0000      0.0000      0.0000
     2         O          1.1730      0.0000      0.0000

           Empirical Formula: C O  =     2 atoms



      MOLECULAR POINT GROUP   :   C*v 


      RHF CALCULATION, NO. OF DOUBLY OCCUPIED LEVELS = 5

 WARNING: INDO only performs single-point calculations

 Summary of symmetry occupancy in each shell:

 SHELL     
    1    5
    v    3
 TOTAL   8




    ROOT NO.    1           2           3           4           5           6

           -43.05652   -19.27644   -14.77940   -14.77940   -14.49534     0.09603
  
  
  S  C   1   0.44267    -0.58677     0.00000     0.00000    -0.60295     0.00000
 PX  C   1   0.36283     0.01825    -0.00000     0.00000     0.61061     0.00000
 PY  C   1   0.00000     0.00000     0.48812    -0.00000     0.00000     0.87278
 PZ  C   1  -0.00000     0.00000     0.00000     0.48812    -0.00000     0.00000
  
  S  O   2   0.77781     0.52976    -0.00000     0.00000    -0.10914     0.00000
 PX  O   2  -0.25962     0.61215     0.00000    -0.00000    -0.50170    -0.00000
 PY  O   2   0.00000     0.00000     0.87278     0.00000     0.00000    -0.48812
 PZ  O   2   0.00000     0.00000     0.00000     0.87278     0.00000     0.00000




    ROOT NO.    7           8

             0.09603    10.49950
  
  
  S  C   1   0.00000     0.31016
 PX  C   1   0.00000     0.70369
 PY  C   1  -0.00000    -0.00000
 PZ  C   1   0.87278     0.00000
  
  S  O   2   0.00000    -0.32009
 PX  O   2  -0.00000     0.55333
 PY  O   2   0.00000     0.00000
 PZ  O   2  -0.48812     0.00000


 Reference determinate nber   1 is ALPHA 1 -   5
 CAS excitations amongst orbitals:   5   6   7
 SINGLE excitations FROM orbs   1 to   5 INTO orbs   6 to   8
 

 CI excitations=   77:        = 77
 The lowest   77 spin-adapted configurations of multiplicity=  1
     sym   eV   cm**-1 -dets- dipole oscilator X FRAG ....Excitations named from first reference determinate
                       tot  #  Debye  strength
 
   1     -0.000      0.  1  1  0.4656 0.000000 0  0 (            )->(               )
   2      6.886  55542.  2  1  1.8085 0.063444 1  1 (   5        )->(   6           )
   3      6.886  55542.  2  1  1.8085 0.063444 1  1 (   5        )->(   7           )
   4      6.934  55929.  2  1  2.4836 0.000000 1  1 (   4        )->(   6           )
   5      6.934  55929.  2  1  2.4836 0.000000 1  1 (   3        )->(   7           )
   6     10.542  85024.  2  1  2.4836 0.460623 1  1 (   3        )->(   6           )
   7     10.542  85024.  2  1  2.4836 0.460623 1  1 (   4        )->(   7           )
   8     12.498 100807.  2  1  2.8818 0.234605 1  1 (   2        )->(   6           )
   9     12.498 100807.  2  1  2.8818 0.234605 1  1 (   2        )->(   7           )
  10     13.227 106680.  6  1  1.1407 0.000000 2  1 (   3   5    )->(   6   7       )
  11     13.227 106680.  6  1  1.1407 0.000000 2  1 (   4   5    )->(   6   7       )
  12     13.933 112374.  2  1  3.1514 0.000000 2  1 (   5   5    )->(   6   7       )
  13     13.951 112525.  2  1  1.1407 0.000000 2  1 (   4   5    )->(   6   6       )
  14     13.951 112525.  2  1  1.1407 0.000000 2  1 (   3   5    )->(   7   7       )
  15     14.294 115286.  1  1  3.1514 0.000000 2  0 (   5   5    )->(   7   7       )
  16     14.294 115286.  1  1  3.1514 0.000000 2  0 (   5   5    )->(   6   6       )
  17     15.009 121058.  2  1  1.1407 0.000000 2  1 (   3   5    )->(   6   6       )
  18     15.009 121058.  2  1  1.1407 0.000000 2  1 (   4   5    )->(   7   7       )
  19     17.437 140642.  2  1  1.1095 0.001563 1  1 (   4        )->(   8           )
  20     17.437 140642.  2  1  1.1095 0.001563 1  1 (   3        )->(   8           )
  21     17.658 142421.  6  2  1.1407 0.000000 2  1 (   4   5    )->(   6   7       )
  22     17.658 142421.  6  2  1.1407 0.000000 2  1 (   3   5    )->(   6   7       )
  23     18.450 148810.  2  1  3.1826 0.421694 1  1 (   5        )->(   8           )
  24     18.996 153215.  6  1  1.5389 0.000000 2  1 (   2   5    )->(   6   7       )
  25     20.732 167214.  6  2  1.5389 0.000000 2  1 (   2   5    )->(   6   7       )
  26     21.093 170126.  2  1  1.5389 0.000000 2  1 (   2   5    )->(   7   7       )
  27     21.093 170126.  2  1  1.5389 0.000000 2  1 (   2   5    )->(   6   6       )
  28     22.716 183219.  2  1  0.2022 0.000000 3  1 (   4   5   5)->(   6   7   7   )
  29     22.716 183219.  2  1  0.2022 0.000000 3  1 (   3   5   5)->(   6   6   7   )
  30     23.036 185800.  2  1  1.5078 0.006330 1  1 (   2        )->(   8           )
  31     24.156 194833.  6  1  0.2334 0.000000 2  1 (   3   5    )->(   6   8       )
  32     24.156 194833.  6  1  0.2334 0.000000 2  1 (   4   5    )->(   7   8       )
  33     24.316 196118.  6  1  0.2334 0.000000 2  1 (   4   5    )->(   6   8       )
  34     24.316 196118.  6  1  0.2334 0.000000 2  1 (   3   5    )->(   7   8       )
  35     25.183 203119.  6  2  0.2334 0.000000 2  1 (   4   5    )->(   6   8       )
  36     25.183 203119.  6  2  0.2334 0.000000 2  1 (   3   5    )->(   7   8       )
  37     25.266 203781.  2  1  0.2022 0.000000 3  1 (   3   5   5)->(   6   7   7   )
  38     25.266 203781.  2  1  0.2022 0.000000 3  1 (   4   5   5)->(   6   6   7   )
  39     26.047 210087.  2  1  4.5255 0.000000 2  1 (   5   5    )->(   6   8       )
  40     26.047 210087.  2  1  4.5255 0.000000 2  1 (   5   5    )->(   7   8       )
  41     26.883 216825.  2  1  0.1960 0.000000 3  1 (   2   5   5)->(   6   7   7   )
  42     26.883 216825.  2  1  0.1960 0.000000 3  1 (   2   5   5)->(   6   6   7   )
  43     28.453 229489.  6  2  0.2334 0.000000 2  1 (   3   5    )->(   6   8       )
  44     28.453 229489.  6  2  0.2334 0.000000 2  1 (   4   5    )->(   7   8       )
  45     30.197 243559.  6  1  0.1649 0.000000 2  1 (   2   5    )->(   6   8       )
  46     30.197 243559.  6  1  0.1649 0.000000 2  1 (   2   5    )->(   7   8       )
  47     32.231 259960.  6  2  0.1649 0.000000 2  1 (   2   5    )->(   6   8       )
  48     32.231 259960.  6  2  0.1649 0.000000 2  1 (   2   5    )->(   7   8       )
  49     32.310 260600.  6  1  1.5763 0.000000 3  1 (   4   5   5)->(   6   7   8   )
  50     32.310 260600.  6  1  1.5763 0.000000 3  1 (   3   5   5)->(   6   7   8   )
  51     33.276 268392.  2  1  1.5763 0.000000 3  1 (   3   5   5)->(   7   7   8   )
  52     33.276 268392.  2  1  1.5763 0.000000 3  1 (   4   5   5)->(   6   6   8   )
  53     34.334 276925.  2  1  1.5763 0.000000 3  1 (   3   5   5)->(   6   6   8   )
  54     34.334 276925.  2  1  1.5763 0.000000 3  1 (   4   5   5)->(   7   7   8   )
  55     36.230 292212.  6  2  1.5763 0.000000 3  1 (   4   5   5)->(   6   7   8   )
  56     36.230 292212.  6  2  1.5763 0.000000 3  1 (   3   5   5)->(   6   7   8   )
  57     36.382 293445.  2  1  2.0541 0.018654 1  1 (   1        )->(   6           )
  58     36.382 293445.  2  1  2.0541 0.018654 1  1 (   1        )->(   7           )
  59     38.174 307899.  6  1  1.1780 0.000000 3  1 (   2   5   5)->(   6   7   8   )
  60     38.536 310811.  2  1  1.1780 0.000000 3  1 (   2   5   5)->(   6   6   8   )
  61     38.536 310811.  2  1  1.1780 0.000000 3  1 (   2   5   5)->(   7   7   8   )
  62     38.680 311977.  6  2  1.1780 0.000000 3  1 (   2   5   5)->(   6   7   8   )
  63     41.794 337090.  6  1  0.7113 0.000000 2  1 (   1   5    )->(   6   7       )
  64     42.155 340002.  2  1  0.7113 0.000000 2  1 (   1   5    )->(   6   6       )
  65     42.155 340002.  2  1  0.7113 0.000000 2  1 (   1   5    )->(   7   7       )
  66     43.534 351130.  6  2  0.7113 0.000000 2  1 (   1   5    )->(   6   7       )
  67     49.739 401171.  2  1  0.6801 0.068685 1  1 (   1        )->(   8           )
  68     50.337 405999.  2  1  0.6316 0.000000 3  1 (   1   5   5)->(   6   6   7   )
  69     50.337 405999.  2  1  0.6316 0.000000 3  1 (   1   5   5)->(   6   7   7   )
  70     51.939 418914.  6  1  0.6628 0.000000 2  1 (   1   5    )->(   6   8       )
  71     51.939 418914.  6  1  0.6628 0.000000 2  1 (   1   5    )->(   7   8       )
  72     57.126 460755.  6  2  0.6628 0.000000 2  1 (   1   5    )->(   7   8       )
  73     57.126 460755.  6  2  0.6628 0.000000 2  1 (   1   5    )->(   6   8       )
  74     60.352 486775.  6  1  2.0057 0.000000 3  1 (   1   5   5)->(   6   7   8   )
  75     64.448 519806.  6  2  2.0057 0.000000 3  1 (   1   5   5)->(   6   7   8   )
  76     64.809 522718.  2  1  2.0057 0.000000 3  1 (   1   5   5)->(   6   6   8   )
  77     64.809 522718.  2  1  2.0057 0.000000 3  1 (   1   5   5)->(   7   7   8   )

 Depression of ground-state after CI=      -3358. cm**-1 Energy=  -462.7677043 eV
 Dipole moment= -0.491017 -0.000000  0.000000 tot=  0.491017 Debyes


  CI trans.  energy frequency wavelength oscillator--------- polarization---------  dipole  ------ components-----
 st.  symm.    eV      cm - 1       nm      strength       x          y         z       moment     x       y       z 

   2      6.8770965    55468.    180.29  0.000000                                   1.973126   1.973   0.000  -0.000
   3      6.9768087    56272.    177.71  0.041302  -0.000000   0.009989  -0.999950  1.498484  -1.498  -0.000   0.000
   4      6.9768087    56272.    177.71  0.041302   0.000000  -0.999950  -0.009989  1.498484  -1.498   0.000   0.000
   5      7.2409112    58402.    171.23  0.000000                                   1.915962   1.916  -0.000   0.000
   6      7.2409112    58402.    171.23  0.000000                                   1.915962   1.916  -0.000   0.000
   7     11.2392892    90651.    110.31  0.166153   0.000000  -0.999999  -0.001498  1.906694   1.907   0.000   0.000
   8     11.2392892    90651.    110.31  0.166153   0.000000  -0.001498   0.999999  1.906694   1.907   0.000   0.000
   9     12.2228962    98585.    101.44  0.530306  -1.000000  -0.000000  -0.000000  1.662442   1.662   0.000  -0.000
  10     13.7356148   110785.     90.26  0.000000                                   1.019470   1.019   0.000   0.000
  11     13.7356148   110785.     90.26  0.000000                                   1.019470   1.019   0.000  -0.000
  12     13.9879183   112820.     88.64  0.043569   0.000000  -0.007208  -0.999974  1.117758   1.118   0.000   0.000
  13     13.9879183   112820.     88.64  0.043569   0.000000  -0.999974   0.007208  1.117758   1.118   0.000   0.000
  14     14.2943775   115292.     86.74  0.000000                                   3.101883  -3.102  -0.000  -0.000
  15     14.2943775   115292.     86.74  0.000000                                   3.101883  -3.102  -0.000  -0.000
  16     14.7258624   118772.     84.19  0.005538   0.000000   0.999989  -0.004588  1.053625   1.054   0.000  -0.000
  17     14.7258624   118772.     84.19  0.005538   0.000000  -0.004588  -0.999989  1.053625   1.054  -0.000   0.000
  18     15.0901605   121711.     82.16  0.010110   1.000000  -0.000000  -0.000000  2.951133  -2.951  -0.000  -0.000
  19     17.6880053   142664.     70.09  0.002030  -0.000000  -0.005407  -0.999985  1.064373   1.064   0.000  -0.000
  20     17.6880053   142664.     70.09  0.002030  -0.000000   0.999985  -0.005407  1.064373   1.064   0.000  -0.000
  21     18.9573582   152902.     65.40  0.551327  -1.000000  -0.000000   0.000000  2.031599  -2.032  -0.000   0.000
  22     18.9722209   153022.     65.35  0.000000                                   1.166045   1.166   0.000  -0.000
  23     19.3928287   156414.     63.93  0.028038   0.000000   0.872645   0.488355  1.174373   1.174  -0.000   0.000
  24     19.3928287   156414.     63.93  0.028038   0.000000   0.488355  -0.872645  1.174373   1.174  -0.000  -0.000
  25     19.9473429   160887.     62.16  0.000000                                   0.654989   0.655   0.000   0.000
  26     19.9473429   160887.     62.16  0.000000                                   0.654989   0.655   0.000  -0.000
  27     20.9229049   168755.     59.26  0.083043  -1.000000  -0.000000  -0.000000  0.023099  -0.023  -0.000  -0.000
  28     21.5189145   173562.     57.62  0.000000                                   0.105540   0.106  -0.000   0.000
  29     22.7688055   183643.     54.45  0.320192   1.000000  -0.000000  -0.000000  1.505661   1.506   0.000   0.000
  30     24.6436271   198765.     50.31  0.000000                                   0.122027  -0.122   0.000   0.000
  31     24.6436271   198765.     50.31  0.000000                                   0.122027  -0.122   0.000   0.000
  32     24.7699806   199784.     50.05  0.000000                                   0.038938   0.039   0.000   0.000
  33     24.8649346   200550.     49.86  0.001289   1.000000  -0.000000   0.000000  0.044562  -0.045   0.000   0.000
  34     25.6315746   206733.     48.37  0.000000                                   0.297331   0.297  -0.000   0.000
  35     25.6315746   206733.     48.37  0.000000                                   0.297331   0.297  -0.000   0.000
  36     25.6451196   206842.     48.35  0.000000                                   0.018964  -0.019   0.000   0.000
  37     26.2262054   211529.     47.27  0.000000                                   0.418314   0.418  -0.000  -0.000
  38     26.2262054   211529.     47.27  0.000000                                   0.418314   0.418   0.000  -0.000
  39     26.2782256   211949.     47.18  0.003368   0.000000   0.996387  -0.084928  2.810061  -2.810  -0.000   0.000
  40     26.2782256   211949.     47.18  0.003368  -0.000000   0.084928   0.996387  2.810061  -2.810  -0.000   0.000
  41     27.1514016   218991.     45.66  0.004054  -1.000000  -0.000000  -0.000000  0.307429   0.307  -0.000   0.000
  42     27.5888925   222520.     44.94  0.000605  -0.000000  -0.998485  -0.055024  0.522231  -0.522  -0.000  -0.000
  43     27.5888925   222520.     44.94  0.000605  -0.000000  -0.055024   0.998485  0.522231  -0.522  -0.000  -0.000
  44     30.7590385   248089.     40.31  0.000033  -0.000000  -0.969598  -0.244702  0.098447   0.098  -0.000   0.000
  45     30.7590385   248089.     40.31  0.000033   0.000000  -0.244702   0.969598  0.098447   0.098  -0.000  -0.000
  46     31.2265098   251859.     39.70  0.000117   0.000000  -0.999958   0.009122  0.704217  -0.704  -0.000   0.000
  47     31.2265098   251859.     39.70  0.000117   0.000000  -0.009122  -0.999958  0.704217  -0.704  -0.000   0.000
  48     32.7607419   264234.     37.85  0.000027  -0.000000   0.924996   0.379976  1.239590  -1.240  -0.000  -0.000
  49     32.7607419   264234.     37.85  0.000027   0.000000   0.379976  -0.924996  1.239590  -1.240  -0.000  -0.000
  50     33.1054535   267014.     37.45  0.000000                                   1.455068  -1.455  -0.000  -0.000
  51     33.1054535   267014.     37.45  0.000000                                   1.455068  -1.455  -0.000   0.000
  52     33.2676824   268323.     37.27  0.017829  -1.000000   0.000000   0.000000  0.142299   0.142   0.000  -0.000
  53     34.0843491   274910.     36.38  0.000006   0.000000  -0.999962   0.008752  1.430530  -1.431  -0.000  -0.000
  54     34.0843491   274910.     36.38  0.000006  -0.000000   0.008752   0.999962  1.430530  -1.431  -0.000  -0.000
  55     36.6590059   295676.     33.82  0.016697  -0.000000  -0.925050  -0.379844  1.625761   1.626   0.000   0.000
  56     36.6590059   295676.     33.82  0.016697  -0.000000  -0.379844   0.925050  1.625761   1.626   0.000   0.000
  57     38.7799110   312782.     31.97  0.000000                                   1.185027  -1.185  -0.000  -0.000
  58     38.7799110   312782.     31.97  0.000000                                   1.185027  -1.185  -0.000  -0.000
  59     39.0571680   315018.     31.74  0.000000                                   1.299438  -1.299  -0.000   0.000
  60     39.6281732   319624.     31.29  0.000011  -1.000000  -0.000000   0.000000  1.191683  -1.192  -0.000  -0.000
  61     39.9771766   322438.     31.01  0.000030   0.000000   0.999427  -0.033852  1.606802  -1.607  -0.000   0.000
  62     39.9771766   322438.     31.01  0.000030  -0.000000   0.033852   0.999427  1.606802  -1.607  -0.000   0.000
  63     42.3290958   341408.     29.29  0.000000                                   0.974943   0.975  -0.000   0.000
  64     42.3290958   341408.     29.29  0.000000                                   0.974943   0.975   0.000  -0.000
  65     43.1038453   347657.     28.76  0.000479   1.000000  -0.000000  -0.000000  0.949824   0.950  -0.000   0.000
  66     43.9939919   354836.     28.18  0.000000                                   0.586982   0.587   0.000   0.000
  67     50.7178475   409068.     24.45  0.299734  -1.000000   0.000000  -0.000000  0.542601   0.543   0.000   0.000
  68     50.9369062   410835.     24.34  0.000035  -0.000000  -0.066372   0.997795  0.500975  -0.501  -0.000   0.000
  69     50.9369062   410835.     24.34  0.000035  -0.000000   0.997795   0.066372  0.500975  -0.501  -0.000  -0.000
  70     52.6926246   424996.     23.53  0.001656   0.000000  -0.981406   0.191944  0.037924  -0.038  -0.000   0.000
  71     52.6926246   424996.     23.53  0.001656   0.000000   0.191944   0.981406  0.037924  -0.038  -0.000  -0.000
  72     58.0559056   468254.     21.36  0.000067  -0.000000   0.149312   0.988790  0.717022  -0.717  -0.000  -0.000
  73     58.0559056   468254.     21.36  0.000067  -0.000000  -0.988790   0.149312  0.717022  -0.717   0.000  -0.000
  74     60.9080652   491258.     20.36  0.000000                                   1.671182  -1.671  -0.000  -0.000
  75     65.1845896   525751.     19.02  0.000000                                   2.122971  -2.123  -0.000  -0.000
  76     65.1845896   525751.     19.02  0.000000                                   2.122971  -2.123  -0.000   0.000
  77     66.0141454   532441.     18.78  0.000108   1.000000  -0.000000   0.000000  2.107915  -2.108  -0.000   0.000
 
 Polarizability (au  ) xx=   13.50 xy=   -0.00 yy=    5.58 xz=    0.00 yz=    0.00 zz=    5.58
 Polarizability (A**3) xx=    2.00 xy=   -0.00 yy=    0.83 xz=    0.00 yz=    0.00 zz=    0.83
 
 
 Major CI contributions to CI states
 
State    1  0.0000     CI coeff  CI percent
    Config       1  -0.99156975  0.98321056
    Config      15   0.05499856  0.00302484
    Config      16   0.05499856  0.00302484
    Config      43   0.06272418  0.00393432
    Config      44   0.06272418  0.00393432
 Total coeff printed             0.99712889
  
State    2  6.8771     CI coeff  CI percent
    Config       4   0.70239243  0.49335513
    Config       5  -0.70239243  0.49335513
    Config      28  -0.04358188  0.00189938
    Config      29   0.04358188  0.00189938
    Config      33  -0.04488044  0.00201425
    Config      34   0.04488044  0.00201425
    Config      35  -0.05214648  0.00271926
    Config      36   0.05214648  0.00271926
 Total coeff printed             0.99997603
  
State    3  6.9768     CI coeff  CI percent
    Config       3  -0.99142967  0.98293279
    Config       9   0.06771229  0.00458495
    Config      48  -0.06510613  0.00423881
 Total coeff printed             0.99175655
  
State    4  6.9768     CI coeff  CI percent
    Config       2  -0.99142967  0.98293279
    Config       8   0.06771229  0.00458495
    Config      47  -0.06510613  0.00423881
 Total coeff printed             0.99175655
  
State    5  7.2409     CI coeff  CI percent
    Config       6  -0.69817688  0.48745095
    Config       7   0.69817688  0.48745095
    Config      15  -0.04267452  0.00182111
    Config      16   0.04267452  0.00182111
    Config      26  -0.06411810  0.00411113
    Config      27   0.06411810  0.00411113
    Config      37   0.04268354  0.00182188
    Config      38  -0.04268354  0.00182188
    Config      43  -0.06843664  0.00468357
    Config      44   0.06843664  0.00468357
 Total coeff printed             0.99977731
  
State    6  7.2409     CI coeff  CI percent
    Config       4  -0.69817688  0.48745095
    Config       5  -0.69817688  0.48745095
    Config      12  -0.06035088  0.00364223
    Config      25   0.09067669  0.00822226
    Config      28   0.04268354  0.00182188
    Config      29   0.04268354  0.00182188
    Config      33   0.04479074  0.00200621
    Config      34   0.04479074  0.00200621
    Config      35   0.05208263  0.00271260
    Config      36   0.05208263  0.00271260
 Total coeff printed             0.99984779
  
State    7 11.2393     CI coeff  CI percent
    Config       2  -0.05077261  0.00257786
    Config       8  -0.84293167  0.71053380
    Config      11   0.31685881  0.10039951
    Config      14  -0.04592383  0.00210900
    Config      17   0.41109545  0.16899947
    Config      21   0.08914027  0.00794599
    Config      41   0.05162625  0.00266527
    Config      45   0.04780521  0.00228534
 Total coeff printed             0.99751622
  
State    8 11.2393     CI coeff  CI percent
    Config       3   0.05077261  0.00257786
    Config       9   0.84293167  0.71053380
    Config      10  -0.31685881  0.10039951
    Config      13   0.04592383  0.00210900
    Config      18  -0.41109545  0.16899947
    Config      22   0.08914027  0.00794599
    Config      42  -0.05162625  0.00266527
    Config      46  -0.04780521  0.00228534
 Total coeff printed             0.99751622
  
State    9 12.2229     CI coeff  CI percent
    Config       6  -0.64072346  0.41052655
    Config       7  -0.64072346  0.41052655
    Config      15   0.07553161  0.00570502
    Config      16   0.07553161  0.00570502
    Config      23   0.36523926  0.13339971
    Config      26   0.05296109  0.00280488
    Config      27   0.05296109  0.00280488
    Config      30  -0.11559739  0.01336276
    Config      43  -0.05663551  0.00320758
    Config      44  -0.05663551  0.00320758
    Config      67   0.07602466  0.00577975
 Total coeff printed             0.99703029
  
State   10 13.7356     CI coeff  CI percent
    Config      10  -0.63152761  0.39882712
    Config      13  -0.49971043  0.24971051
    Config      18   0.49971043  0.24971051
    Config      22   0.31716542  0.10059390
 Total coeff printed             0.99884204
  
State   11 13.7356     CI coeff  CI percent
    Config      11  -0.63152761  0.39882712
    Config      14  -0.49971043  0.24971051
    Config      17   0.49971043  0.24971051
    Config      21  -0.31716542  0.10059390
 Total coeff printed             0.99884204
  
State   12 13.9879     CI coeff  CI percent
    Config       3  -0.06676021  0.00445693
    Config       9  -0.35614535  0.12683951
    Config      10  -0.70460224  0.49646431
    Config      13   0.46237698  0.21379247
    Config      18  -0.22055375  0.04864396
    Config      22  -0.32698445  0.10691883
 Total coeff printed             0.99711601
  
State   13 13.9879     CI coeff  CI percent
    Config       2  -0.06676021  0.00445693
    Config       8  -0.35614535  0.12683951
    Config      11  -0.70460224  0.49646431
    Config      14   0.46237698  0.21379247
    Config      17  -0.22055375  0.04864396
    Config      21   0.32698445  0.10691883
 Total coeff printed             0.99711601
  
State   14 14.2944     CI coeff  CI percent
    Config      15  -0.70322967  0.49453197
    Config      16   0.70322967  0.49453197
    Config      37  -0.04792740  0.00229704
    Config      38   0.04792740  0.00229704
 Total coeff printed             0.99365801
  
State   15 14.2944     CI coeff  CI percent
    Config      12   0.99451693  0.98906393
    Config      25   0.05239410  0.00274514
    Config      28   0.04792740  0.00229704
    Config      29   0.04792740  0.00229704
 Total coeff printed             0.99640315
  
State   16 14.7259     CI coeff  CI percent
    Config       8   0.17755774  0.03152675
    Config      14   0.72713064  0.52871897
    Config      17   0.51747058  0.26777580
    Config      20  -0.05868804  0.00344429
    Config      21  -0.40038733  0.16031001
    Config      41  -0.06915386  0.00478226
 Total coeff printed             0.99655807
  
State   17 14.7259     CI coeff  CI percent
    Config       9  -0.17755774  0.03152675
    Config      13  -0.72713064  0.52871897
    Config      18  -0.51747058  0.26777580
    Config      19   0.05868804  0.00344429
    Config      22  -0.40038733  0.16031001
    Config      42   0.06915386  0.00478226
 Total coeff printed             0.99655807
  
State   18 15.0902     CI coeff  CI percent
    Config       1  -0.07542680  0.00568920
    Config       6  -0.04154534  0.00172602
    Config       7  -0.04154534  0.00172602
    Config      15  -0.69604304  0.48447591
    Config      16  -0.69604304  0.48447591
    Config      23   0.13325201  0.01775610
 Total coeff printed             0.99584915
  
State   19 17.6880     CI coeff  CI percent
    Config      13  -0.04633228  0.00214668
    Config      19  -0.99151121  0.98309448
    Config      22  -0.05030455  0.00253055
    Config      48  -0.06098880  0.00371963
    Config      52   0.05340788  0.00285240
    Config      54   0.05559842  0.00309118
 Total coeff printed             0.99743493
  
State   20 17.6880     CI coeff  CI percent
    Config      14   0.04633228  0.00214668
    Config      20   0.99151121  0.98309448
    Config      21  -0.05030455  0.00253055
    Config      47   0.06098880  0.00371963
    Config      51  -0.05340788  0.00285240
    Config      53  -0.05559842  0.00309118
 Total coeff printed             0.99743493
  
State   21 18.9574     CI coeff  CI percent
    Config       6  -0.18686143  0.03491719
    Config       7  -0.18686143  0.03491719
    Config      15  -0.04990718  0.00249073
    Config      16  -0.04990718  0.00249073
    Config      23  -0.78757883  0.62028042
    Config      26   0.27683598  0.07663816
    Config      27   0.27683598  0.07663816
    Config      30  -0.30854348  0.09519908
    Config      31   0.12554205  0.01576081
    Config      32   0.12554205  0.01576081
    Config      37  -0.08613037  0.00741844
    Config      38  -0.08613037  0.00741844
    Config      43   0.04771207  0.00227644
    Config      44   0.04771207  0.00227644
    Config      67   0.06389810  0.00408297
 Total coeff printed             0.99856600
  
State   22 18.9722     CI coeff  CI percent
    Config      24  -0.91212648  0.83197472
    Config      28  -0.28856362  0.08326896
    Config      29   0.28856362  0.08326896
 Total coeff printed             0.99851265
  
State   23 19.3928     CI coeff  CI percent
    Config       8   0.28086571  0.07888555
    Config       9   0.15717993  0.02470553
    Config      17   0.42694523  0.18228223
    Config      18   0.23892991  0.05708750
    Config      21   0.65775045  0.43263566
    Config      22  -0.36809466  0.13549368
    Config      39   0.22536197  0.05078802
    Config      40   0.12611856  0.01590589
    Config      45   0.07391409  0.00546329
    Config      46   0.04136429  0.00171100
    Config      47  -0.06428307  0.00413231
    Config      73  -0.06840325  0.00467900
 Total coeff printed             0.99376967
  
State   24 19.3928     CI coeff  CI percent
    Config       8   0.15717993  0.02470553
    Config       9  -0.28086571  0.07888555
    Config      17   0.23892991  0.05708750
    Config      18  -0.42694523  0.18228223
    Config      21   0.36809466  0.13549368
    Config      22   0.65775045  0.43263566
    Config      39   0.12611856  0.01590589
    Config      40  -0.22536197  0.05078802
    Config      45   0.04136429  0.00171100
    Config      46  -0.07391409  0.00546329
    Config      48   0.06428307  0.00413231
    Config      72   0.06840325  0.00467900
 Total coeff printed             0.99376967
  
State   25 19.9473     CI coeff  CI percent
    Config       6   0.07964226  0.00634289
    Config       7  -0.07964226  0.00634289
    Config      15  -0.05046048  0.00254626
    Config      16   0.05046048  0.00254626
    Config      26  -0.63034484  0.39733462
    Config      27   0.63034484  0.39733462
    Config      37   0.30444513  0.09268684
    Config      38  -0.30444513  0.09268684
 Total coeff printed             0.99782122
  
State   26 19.9473     CI coeff  CI percent
    Config       4  -0.07964226  0.00634289
    Config       5  -0.07964226  0.00634289
    Config      12   0.07136189  0.00509252
    Config      25  -0.89144223  0.79466925
    Config      28  -0.30444513  0.09268684
    Config      29  -0.30444513  0.09268684
    Config      63   0.04610435  0.00212561
 Total coeff printed             0.99994683
  
State   27 20.9229     CI coeff  CI percent
    Config       6  -0.10324555  0.01065964
    Config       7  -0.10324555  0.01065964
    Config      15  -0.05180623  0.00268388
    Config      16  -0.05180623  0.00268388
    Config      23  -0.28892655  0.08347855
    Config      26  -0.56455352  0.31872068
    Config      27  -0.56455352  0.31872068
    Config      30  -0.21384503  0.04572970
    Config      31   0.09585955  0.00918905
    Config      32   0.09585955  0.00918905
    Config      37   0.30135584  0.09081534
    Config      38   0.30135584  0.09081534
 Total coeff printed             0.99334545
  
State   28 21.5189     CI coeff  CI percent
    Config       4  -0.04101779  0.00168246
    Config       5   0.04101779  0.00168246
    Config      24   0.40917468  0.16742392
    Config      28  -0.64302245  0.41347787
    Config      29   0.64302245  0.41347787
 Total coeff printed             0.99774458
  
State   29 22.7688     CI coeff  CI percent
    Config       6   0.15718340  0.02470662
    Config       7   0.15718340  0.02470662
    Config      23   0.36601893  0.13396986
    Config      26   0.04312253  0.00185955
    Config      27   0.04312253  0.00185955
    Config      30  -0.77920294  0.60715722
    Config      31   0.26635136  0.07094304
    Config      32   0.26635136  0.07094304
    Config      37  -0.05926800  0.00351270
    Config      38  -0.05926800  0.00351270
    Config      43   0.14232839  0.02025737
    Config      44   0.14232839  0.02025737
    Config      60   0.05489447  0.00301340
    Config      61   0.05489447  0.00301340
    Config      67  -0.08279915  0.00685570
 Total coeff printed             0.99656815
  
State   30 24.6436     CI coeff  CI percent
    Config      31  -0.65658613  0.43110534
    Config      32   0.65658613  0.43110534
    Config      37   0.05066154  0.00256659
    Config      38  -0.05066154  0.00256659
    Config      43  -0.25244591  0.06372894
    Config      44   0.25244591  0.06372894
 Total coeff printed             0.99480174
  
State   31 24.6436     CI coeff  CI percent
    Config      25  -0.04022085  0.00161772
    Config      28   0.05066154  0.00256659
    Config      29   0.05066154  0.00256659
    Config      33   0.68039726  0.46294044
    Config      34   0.68039726  0.46294044
    Config      35  -0.17858847  0.03189384
    Config      36  -0.17858847  0.03189384
 Total coeff printed             0.99641946
  
State   32 24.7700     CI coeff  CI percent
    Config       4   0.04978679  0.00247872
    Config       5  -0.04978679  0.00247872
    Config      33   0.69824260  0.48754273
    Config      34  -0.69824260  0.48754273
    Config      35   0.08998524  0.00809734
    Config      36  -0.08998524  0.00809734
 Total coeff printed             0.99623760
  
State   33 24.8649     CI coeff  CI percent
    Config      23  -0.05068826  0.00256930
    Config      30  -0.39451456  0.15564174
    Config      31  -0.63289026  0.40055008
    Config      32  -0.63289026  0.40055008
    Config      43   0.13577045  0.01843362
    Config      44   0.13577045  0.01843362
 Total coeff printed             0.99617843
  
State   34 25.6316     CI coeff  CI percent
    Config       6  -0.05903326  0.00348493
    Config       7   0.05903326  0.00348493
    Config      26  -0.14321200  0.02050968
    Config      27   0.14321200  0.02050968
    Config      31  -0.25325813  0.06413968
    Config      32   0.25325813  0.06413968
    Config      37  -0.28329490  0.08025600
    Config      38   0.28329490  0.08025600
    Config      43   0.56999674  0.32489628
    Config      44  -0.56999674  0.32489628
    Config      60   0.06863002  0.00471008
    Config      61  -0.06863002  0.00471008
 Total coeff printed             0.99599328
  
State   35 25.6316     CI coeff  CI percent
    Config       4   0.05903326  0.00348493
    Config       5   0.05903326  0.00348493
    Config      25  -0.20253235  0.04101935
    Config      28   0.28329490  0.08025600
    Config      29   0.28329490  0.08025600
    Config      33   0.12735416  0.01621908
    Config      34   0.12735416  0.01621908
    Config      35   0.61058732  0.37281688
    Config      36   0.61058732  0.37281688
    Config      59  -0.09705750  0.00942016
 Total coeff printed             0.99599328
  
State   36 25.6451     CI coeff  CI percent
    Config       4   0.04496374  0.00202174
    Config       5  -0.04496374  0.00202174
    Config      33  -0.09165029  0.00839978
    Config      34   0.09165029  0.00839978
    Config      35   0.69821747  0.48750763
    Config      36  -0.69821747  0.48750763
    Config      62  -0.04538636  0.00205992
 Total coeff printed             0.99791822
  
State   37 26.2262     CI coeff  CI percent
    Config      26  -0.26953418  0.07264867
    Config      27   0.26953418  0.07264867
    Config      31   0.06795265  0.00461756
    Config      32  -0.06795265  0.00461756
    Config      37  -0.55868049  0.31212389
    Config      38   0.55868049  0.31212389
    Config      43  -0.32134716  0.10326400
    Config      44   0.32134716  0.10326400
    Config      60   0.05555621  0.00308649
    Config      61  -0.05555621  0.00308649
    Config      76  -0.05040431  0.00254059
    Config      77   0.05040431  0.00254059
 Total coeff printed             0.99656242
  
State   38 26.2262     CI coeff  CI percent
    Config      25   0.38117889  0.14529735
    Config      28  -0.55868049  0.31212389
    Config      29  -0.55868049  0.31212389
    Config      33   0.13253511  0.01756556
    Config      34   0.13253511  0.01756556
    Config      35   0.30052621  0.09031601
    Config      36   0.30052621  0.09031601
    Config      59   0.07856834  0.00617298
    Config      63  -0.04073456  0.00165930
    Config      75   0.07128246  0.00508119
 Total coeff printed             0.99822172
  
State   39 26.2782     CI coeff  CI percent
    Config       8   0.13855091  0.01919635
    Config      17   0.10406633  0.01082980
    Config      21   0.12174693  0.01482231
    Config      39  -0.84857906  0.72008642
    Config      40   0.07232903  0.00523149
    Config      41   0.38428828  0.14767748
    Config      45   0.24424022  0.05965329
    Config      47   0.07586060  0.00575483
    Config      49  -0.05446586  0.00296653
    Config      53  -0.05525642  0.00305327
    Config      70   0.04995760  0.00249576
    Config      73  -0.06027440  0.00363300
 Total coeff printed             0.99540054
  
State   40 26.2782     CI coeff  CI percent
    Config       9   0.13855091  0.01919635
    Config      18   0.10406633  0.01082980
    Config      22  -0.12174693  0.01482231
    Config      39  -0.07232903  0.00523149
    Config      40  -0.84857906  0.72008642
    Config      42   0.38428828  0.14767748
    Config      46   0.24424022  0.05965329
    Config      48   0.07586060  0.00575483
    Config      50   0.05446586  0.00296653
    Config      54  -0.05525642  0.00305327
    Config      71   0.04995760  0.00249576
    Config      72  -0.06027440  0.00363300
 Total coeff printed             0.99540054
  
State   41 27.1514     CI coeff  CI percent
    Config       6  -0.07185602  0.00516329
    Config       7  -0.07185602  0.00516329
    Config      23  -0.04552501  0.00207253
    Config      26  -0.30775568  0.09471356
    Config      27  -0.30775568  0.09471356
    Config      37  -0.62279056  0.38786809
    Config      38  -0.62279056  0.38786809
    Config      60  -0.08535772  0.00728594
    Config      61  -0.08535772  0.00728594
    Config      76   0.05715913  0.00326717
    Config      77   0.05715913  0.00326717
 Total coeff printed             0.99866860
  
State   42 27.5889     CI coeff  CI percent
    Config      14   0.04108173  0.00168771
    Config      21  -0.11708766  0.01370952
    Config      39   0.35159273  0.12361745
    Config      41   0.91485178  0.83695377
    Config      42   0.05041525  0.00254170
    Config      45  -0.11733414  0.01376730
 Total coeff printed             0.99227745
  
State   43 27.5889     CI coeff  CI percent
    Config      13  -0.04108173  0.00168771
    Config      22  -0.11708766  0.01370952
    Config      40  -0.35159273  0.12361745
    Config      41   0.05041525  0.00254170
    Config      42  -0.91485178  0.83695377
    Config      46   0.11733414  0.01376730
 Total coeff printed             0.99227745
  
State   44 30.7590     CI coeff  CI percent
    Config      17  -0.08657761  0.00749568
    Config      21  -0.11517215  0.01326462
    Config      39   0.24061779  0.05789692
    Config      40   0.06072574  0.00368762
    Config      45   0.86218516  0.74336324
    Config      46   0.21759334  0.04734686
    Config      47  -0.05531988  0.00306029
    Config      49  -0.24915431  0.06207787
    Config      50   0.06288013  0.00395391
    Config      51   0.04323206  0.00186901
    Config      53  -0.16120728  0.02598779
    Config      54  -0.04068457  0.00165523
    Config      55  -0.12173247  0.01481879
    Config      57  -0.07379280  0.00544538
    Config      73   0.06007281  0.00360874
 Total coeff printed             0.99553196
  
State   45 30.7590     CI coeff  CI percent
    Config      18   0.08657761  0.00749568
    Config      22  -0.11517215  0.01326462
    Config      39   0.06072574  0.00368762
    Config      40  -0.24061779  0.05789692
    Config      45   0.21759334  0.04734686
    Config      46  -0.86218516  0.74336324
    Config      48   0.05531988  0.00306029
    Config      49  -0.06288013  0.00395391
    Config      50  -0.24915431  0.06207787
    Config      52  -0.04323206  0.00186901
    Config      53  -0.04068457  0.00165523
    Config      54   0.16120728  0.02598779
    Config      56   0.12173247  0.01481879
    Config      58   0.07379280  0.00544538
    Config      72  -0.06007281  0.00360874
 Total coeff printed             0.99553196
  
State   46 31.2265     CI coeff  CI percent
    Config       8  -0.04012232  0.00160980
    Config      20   0.07206522  0.00519340
    Config      39  -0.09615510  0.00924580
    Config      47  -0.88735019  0.78739036
    Config      53   0.27193471  0.07394849
    Config      55  -0.33799009  0.11423730
    Config      70  -0.04803913  0.00230776
 Total coeff printed             0.99393290
  
State   47 31.2265     CI coeff  CI percent
    Config       9  -0.04012232  0.00160980
    Config      19   0.07206522  0.00519340
    Config      40  -0.09615510  0.00924580
    Config      48  -0.88735019  0.78739036
    Config      54   0.27193471  0.07394849
    Config      56  -0.33799009  0.11423730
    Config      71  -0.04803913  0.00230776
 Total coeff printed             0.99393290
  
State   48 32.7607     CI coeff  CI percent
    Config      45   0.31142887  0.09698794
    Config      46   0.12793079  0.01636629
    Config      47   0.04055146  0.00164442
    Config      49   0.69312012  0.48041550
    Config      50  -0.28472443  0.08106800
    Config      51  -0.25102956  0.06301584
    Config      52  -0.10311957  0.01063365
    Config      53   0.37741801  0.14244435
    Config      54   0.15503824  0.02403686
    Config      55   0.26014032  0.06767298
    Config      56   0.10686214  0.01141952
 Total coeff printed             0.99570534
  
State   49 32.7607     CI coeff  CI percent
    Config      45   0.12793079  0.01636629
    Config      46  -0.31142887  0.09698794
    Config      48  -0.04055146  0.00164442
    Config      49   0.28472443  0.08106800
    Config      50   0.69312012  0.48041550
    Config      51  -0.10311957  0.01063365
    Config      52   0.25102956  0.06301584
    Config      53   0.15503824  0.02403686
    Config      54  -0.37741801  0.14244435
    Config      55   0.10686214  0.01141952
    Config      56  -0.26014032  0.06767298
 Total coeff printed             0.99570534
  
State   50 33.1055     CI coeff  CI percent
    Config      49  -0.59556278  0.35469503
    Config      51  -0.49955030  0.24955051
    Config      53   0.49955030  0.24955051
    Config      55   0.38000788  0.14440599
 Total coeff printed             0.99820203
  
State   51 33.1055     CI coeff  CI percent
    Config      50  -0.59556278  0.35469503
    Config      52   0.49955030  0.24955051
    Config      54  -0.49955030  0.24955051
    Config      56  -0.38000788  0.14440599
 Total coeff printed             0.99820203
  
State   52 33.2677     CI coeff  CI percent
    Config       1   0.08053289  0.00648555
    Config       6  -0.07025540  0.00493582
    Config       7  -0.07025540  0.00493582
    Config      30   0.27502071  0.07563639
    Config      31   0.05571132  0.00310375
    Config      32   0.05571132  0.00310375
    Config      43   0.66485298  0.44202948
    Config      44   0.66485298  0.44202948
    Config      60   0.04865294  0.00236711
    Config      61   0.04865294  0.00236711
    Config      64   0.06514199  0.00424348
    Config      65   0.06514199  0.00424348
    Config      67   0.05628327  0.00316781
 Total coeff printed             0.99864903
  
State   53 34.0843     CI coeff  CI percent
    Config      20  -0.06782051  0.00459962
    Config      45  -0.06587542  0.00433957
    Config      49   0.10149099  0.01030042
    Config      51  -0.81758986  0.66845317
    Config      53  -0.45711404  0.20895324
    Config      55  -0.31481334  0.09910744
    Config      69   0.04877959  0.00237945
 Total coeff printed             0.99813291
  
State   54 34.0843     CI coeff  CI percent
    Config      19   0.06782051  0.00459962
    Config      46   0.06587542  0.00433957
    Config      50   0.10149099  0.01030042
    Config      52   0.81758986  0.66845317
    Config      54   0.45711404  0.20895324
    Config      56   0.31481334  0.09910744
    Config      68  -0.04877959  0.00237945
 Total coeff printed             0.99813291
  
State   55 36.6590     CI coeff  CI percent
    Config      39   0.04392550  0.00192945
    Config      45   0.06592284  0.00434582
    Config      55   0.06196672  0.00383987
    Config      57   0.91041791  0.82886078
    Config      58   0.37383599  0.13975335
    Config      69  -0.05894465  0.00347447
    Config      70   0.09583498  0.00918434
 Total coeff printed             0.99138808
  
State   56 36.6590     CI coeff  CI percent
    Config      40  -0.04392550  0.00192945
    Config      46  -0.06592284  0.00434582
    Config      56  -0.06196672  0.00383987
    Config      57   0.37383599  0.13975335
    Config      58  -0.91041791  0.82886078
    Config      68   0.05894465  0.00347447
    Config      71  -0.09583498  0.00918434
 Total coeff printed             0.99138808
  
State   57 38.7799     CI coeff  CI percent
    Config      37   0.07307632  0.00534015
    Config      38  -0.07307632  0.00534015
    Config      60   0.69893796  0.48851428
    Config      61  -0.69893796  0.48851428
    Config      64  -0.05307241  0.00281668
    Config      65   0.05307241  0.00281668
 Total coeff printed             0.99334222
  
State   58 38.7799     CI coeff  CI percent
    Config      25   0.05024751  0.00252481
    Config      28  -0.07307632  0.00534015
    Config      29  -0.07307632  0.00534015
    Config      59  -0.98844755  0.97702856
    Config      63   0.07505572  0.00563336
 Total coeff printed             0.99586703
  
State   59 39.0572     CI coeff  CI percent
    Config      62   0.99496003  0.98994546
    Config      66   0.05672291  0.00321749
    Config      74  -0.05455694  0.00297646
 Total coeff printed             0.99613941
  
State   60 39.6282     CI coeff  CI percent
    Config      30  -0.06088728  0.00370726
    Config      37   0.07482652  0.00559901
    Config      38   0.07482652  0.00559901
    Config      43   0.05585038  0.00311927
    Config      44   0.05585038  0.00311927
    Config      60  -0.69461977  0.48249663
    Config      61  -0.69461977  0.48249663
    Config      64   0.06311409  0.00398339
    Config      65   0.06311409  0.00398339
 Total coeff printed             0.99410384
  
State   61 39.9772     CI coeff  CI percent
    Config       2   0.07460517  0.00556593
    Config      39  -0.04405035  0.00194043
    Config      47  -0.42832400  0.18346145
    Config      53  -0.51219769  0.26234647
    Config      55   0.73039620  0.53347860
    Config      57  -0.07266175  0.00527973
    Config      69  -0.06009242  0.00361110
 Total coeff printed             0.99568372
  
State   62 39.9772     CI coeff  CI percent
    Config       3   0.07460517  0.00556593
    Config      40  -0.04405035  0.00194043
    Config      48  -0.42832400  0.18346145
    Config      54  -0.51219769  0.26234647
    Config      56   0.73039620  0.53347860
    Config      58  -0.07266175  0.00527973
    Config      68  -0.06009242  0.00361110
 Total coeff printed             0.99568372
  
State   63 42.3291     CI coeff  CI percent
    Config      43   0.04091870  0.00167434
    Config      44  -0.04091870  0.00167434
    Config      60  -0.05180078  0.00268332
    Config      61   0.05180078  0.00268332
    Config      64  -0.70275026  0.49385792
    Config      65   0.70275026  0.49385792
 Total coeff printed             0.99643117
  
State   64 42.3291     CI coeff  CI percent
    Config      25  -0.04874336  0.00237592
    Config      59  -0.07325737  0.00536664
    Config      63  -0.99383894  0.98771585
 Total coeff printed             0.99545841
  
State   65 43.1038     CI coeff  CI percent
    Config      43   0.06863317  0.00471051
    Config      44   0.06863317  0.00471051
    Config      60  -0.05815471  0.00338197
    Config      61  -0.05815471  0.00338197
    Config      64  -0.69921999  0.48890860
    Config      65  -0.69921999  0.48890860
 Total coeff printed             0.99400216
  
State   66 43.9940     CI coeff  CI percent
    Config      62   0.05699684  0.00324864
    Config      66  -0.99596619  0.99194865
    Config      74  -0.04629174  0.00214293
 Total coeff printed             0.99734021
  
State   67 50.7178     CI coeff  CI percent
    Config       6  -0.08280988  0.00685748
    Config       7  -0.08280988  0.00685748
    Config      23  -0.05778420  0.00333901
    Config      30   0.05712498  0.00326326
    Config      67  -0.98519489  0.97060897
    Config      76   0.05587470  0.00312198
    Config      77   0.05587470  0.00312198
 Total coeff printed             0.99717016
  
State   68 50.9369     CI coeff  CI percent
    Config      56  -0.07130695  0.00508468
    Config      58  -0.06365218  0.00405160
    Config      68  -0.99047445  0.98103963
    Config      69   0.06588537  0.00434088
 Total coeff printed             0.99451680
  
State   69 50.9369     CI coeff  CI percent
    Config      55  -0.07130695  0.00508468
    Config      57  -0.06365218  0.00405160
    Config      68  -0.06588537  0.00434088
    Config      69  -0.99047445  0.98103963
 Total coeff printed             0.99451680
  
State   70 52.6926     CI coeff  CI percent
    Config      39  -0.04128046  0.00170408
    Config      47   0.05452639  0.00297313
    Config      57   0.09959747  0.00991966
    Config      69  -0.04450801  0.00198096
    Config      70  -0.97208675  0.94495265
    Config      71   0.19012143  0.03614616
 Total coeff printed             0.99767663
  
State   71 52.6926     CI coeff  CI percent
    Config      40   0.04128046  0.00170408
    Config      48  -0.05452639  0.00297313
    Config      58  -0.09959747  0.00991966
    Config      68   0.04450801  0.00198096
    Config      70   0.19012143  0.03614616
    Config      71   0.97208675  0.94495265
 Total coeff printed             0.99767663
  
State   72 58.0559     CI coeff  CI percent
    Config      18  -0.05650759  0.00319311
    Config      22   0.07638643  0.00583489
    Config      40   0.05648601  0.00319067
    Config      72  -0.98076316  0.96189637
    Config      73  -0.14809958  0.02193349
 Total coeff printed             0.99604852
  
State   73 58.0559     CI coeff  CI percent
    Config      17   0.05650759  0.00319311
    Config      21   0.07638643  0.00583489
    Config      39  -0.05648601  0.00319067
    Config      72  -0.14809958  0.02193349
    Config      73   0.98076316  0.96189637
 Total coeff printed             0.99604852
  
State   74 60.9081     CI coeff  CI percent
    Config      62   0.05740901  0.00329579
    Config      66  -0.04295126  0.00184481
    Config      74   0.99694968  0.99390866
 Total coeff printed             0.99904927
  
State   75 65.1846     CI coeff  CI percent
    Config      37  -0.05245151  0.00275116
    Config      38   0.05245151  0.00275116
    Config      76   0.70399313  0.49560632
    Config      77  -0.70399313  0.49560632
 Total coeff printed             0.99671497
  
State   76 65.1846     CI coeff  CI percent
    Config      28   0.05245151  0.00275116
    Config      29   0.05245151  0.00275116
    Config      75   0.99559663  0.99121265
 Total coeff printed             0.99671497
  
State   77 66.0141     CI coeff  CI percent
    Config      37   0.05259655  0.00276640
    Config      38   0.05259655  0.00276640
    Config      67   0.07897263  0.00623668
    Config      76   0.70163586  0.49229288
    Config      77   0.70163586  0.49229288
 Total coeff printed             0.99635523
  

 **********************
 *                    *
 * JOB ENDED NORMALLY *
 *                    *
 **********************



 TOTAL JOB TIME:             0.04 SECONDS

 == MOPAC DONE ==
