 *******************************************************************************
 **                                                                           **
 **                              MOPAC v22.0.6                                **
 **                                                                           **
 *******************************************************************************
 **          Digital Object Identifier (DOI): 10.5281/zenodo.6511958          **
 **    Visit the DOI location for information on how to cite this program.    **
 *******************************************************************************

                              PM7 CALCULATION RESULTS

 *******************************************************************************
 *  CALCULATION DONE:                                Thu Apr 13 11:24:41 2023  *
 *  START_RES  - STARTING RESIDUE NUMBERS DEFINED
 *  Keyword:     START_RES=(1A 66) 
 *  CHAINS     - PDB CHAIN LETTERS EXPLICITLY DEFINED
 *  Keyword:     CHAINS=(A) 
 *  MOZYME     - USE LOCALIZED M.O.s IN SOLVING THE SCF EQUATIONS
 *  RESIDUES   - DETERMINE THE SEQUENCE OF RESIDUES
 *  1SCF       - DO 1 SCF AND THEN STOP 
 *  T=         - A TIME OF 172800.0 SECONDS REQUESTED
 *  DUMP=N     - RESTART FILE WRITTEN EVERY 7200.0 SECONDS REQUESTED
 *  DENOUT     - SAVE DENSITY MATRIX FOR USE LATER
 *  PL         - MONITOR CONVERGENCE IN DENSITY MATRIX
 *******************************************************************************
START_RES=(1A 66)  CHAINS=(A)  1SCF MOZYME pl denout residue


   ATOM                 CHEMICAL                   X               Y               Z
  NUMBER                 SYMBOL               (ANGSTROMS)     (ANGSTROMS)     (ANGSTROMS)

     1       N(ATOM      1  N   THR A   1)   16.86400000  *  14.05900000  *   3.44200000  *
     2       C(ATOM      2  CA  THR A   1)   16.86800000  *  12.81400000  *   4.23300000  *
     3       C(ATOM      3  C   THR A   1)   15.58300000  *  12.77500000  *   4.99000000  *
     4       O(ATOM      4  O   THR A   1)   15.11200000  *  13.82400000  *   5.43100000  *
     5       C(ATOM      5  CB  THR A   1)   18.06000000  *  12.80700000  *   5.20000000  *
     6       O(ATOM      6  OG1 THR A   1)   19.23300000  *  12.89200000  *   4.38000000  *
     7       C(ATOM      7  CG2 THR A   1)   18.11700000  *  11.57800000  *   6.09200000  *
     8       N(ATOM      8  N   THR A   2)   15.05000000  *  11.57400000  *   5.15300000  *
     9       C(ATOM      9  CA  THR A   2)   13.83200000  *  11.48000000  *   5.93600000  *
    10       C(ATOM     10  C   THR A   2)   14.14000000  *  10.77100000  *   7.25900000  *
    11       O(ATOM     11  O   THR A   2)   14.98100000  *   9.84400000  *   7.35200000  *
    12       C(ATOM     12  CB  THR A   2)   12.70400000  *  10.75800000  *   5.17800000  *
    13       O(ATOM     13  OG1 THR A   2)   13.21600000  *   9.50400000  *   4.84200000  *
    14       C(ATOM     14  CG2 THR A   2)   12.26900000  *  11.57300000  *   3.95700000  *
    15       N(ATOM     15  N   CYS A   3)   13.41500000  *  11.19300000  *   8.28100000  *
    16       C(ATOM     16  CA  CYS A   3)   13.56400000  *  10.66400000  *   9.65300000  *
    17       C(ATOM     17  C   CYS A   3)   12.17900000  *  10.37300000  *  10.19200000  *
    18       O(ATOM     18  O   CYS A   3)   11.30300000  *  11.24900000  *   9.99900000  *
    19       C(ATOM     19  CB  CYS A   3)   14.25300000  *  11.70700000  *  10.54700000  *
    20       S(ATOM     20  SG  CYS A   3)   15.80400000  *  12.39800000  *   9.92100000  *
    21       N(ATOM     21  N   CYS A   4)   11.99800000  *   9.28100000  *  10.85800000  *
    22       C(ATOM     22  CA  CYS A   4)   10.65700000  *   8.92700000  *  11.34100000  *
    23       C(ATOM     23  C   CYS A   4)   10.64800000  *   8.74900000  *  12.84200000  *
    24       O(ATOM     24  O   CYS A   4)   11.61500000  *   8.25700000  *  13.44000000  *
    25       C(ATOM     25  CB  CYS A   4)   10.13700000  *   7.67800000  *  10.63400000  *
    26       S(ATOM     26  SG  CYS A   4)    9.80400000  *   7.92800000  *   8.86500000  *
    27       N(ATOM     27  N   PRO A   5)    9.52900000  *   9.07500000  *  13.50600000  *
    28       C(ATOM     28  CA  PRO A   5)    9.47400000  *   9.02500000  *  14.94200000  *
    29       C(ATOM     29  C   PRO A   5)    9.33500000  *   7.68000000  *  15.54400000  *
    30       O(ATOM     30  O   PRO A   5)    9.59900000  *   7.51100000  *  16.76100000  *
    31       C(ATOM     31  CB  PRO A   5)    8.24700000  *   9.90100000  *  15.26600000  *
    32       C(ATOM     32  CG  PRO A   5)    7.32200000  *   9.73300000  *  14.05500000  *
    33       C(ATOM     33  CD  PRO A   5)    8.31600000  *   9.74500000  *  12.91200000  *
    34       N(ATOM     34  N   SER A   6)    8.90300000  *   6.70100000  *  14.77200000  *
    35       C(ATOM     35  CA  SER A   6)    8.70600000  *   5.34100000  *  15.23000000  *
    36       C(ATOM     36  C   SER A   6)    8.79100000  *   4.42200000  *  14.00900000  *
    37       O(ATOM     37  O   SER A   6)    8.72200000  *   4.87600000  *  12.86700000  *
    38       C(ATOM     38  CB  SER A   6)    7.37600000  *   5.15100000  *  15.94700000  *
    39       O(ATOM     39  OG  SER A   6)    6.32700000  *   5.25400000  *  14.94300000  *
    40       N(ATOM     40  N   ILE A   7)    8.88700000  *   3.12900000  *  14.30100000  *
    41       C(ATOM     41  CA  ILE A   7)    8.94100000  *   2.08700000  *  13.26700000  *
    42       C(ATOM     42  C   ILE A   7)    7.65300000  *   2.10600000  *  12.39500000  *
    43       O(ATOM     43  O   ILE A   7)    7.75200000  *   2.10900000  *  11.18200000  *
    44       C(ATOM     44  CB  ILE A   7)    9.19300000  *   0.73600000  *  13.88000000  *
    45       C(ATOM     45  CG1 ILE A   7)   10.65900000  *   0.72600000  *  14.33700000  *
    46       C(ATOM     46  CG2 ILE A   7)    8.87700000  *  -0.42500000  *  12.92700000  *
    47       C(ATOM     47  CD1 ILE A   7)   11.29300000  *  -0.46000000  *  15.01100000  *
    48       N(ATOM     48  N   VAL A   8)    6.50500000  *   2.13700000  *  13.06900000  *
    49       C(ATOM     49  CA  VAL A   8)    5.25000000  *   2.18000000  *  12.30000000  *
    50       C(ATOM     50  C   VAL A   8)    5.17500000  *   3.35900000  *  11.39500000  *
    51       O(ATOM     51  O   VAL A   8)    4.66800000  *   3.26500000  *  10.24000000  *
    52       C(ATOM     52  CB  VAL A   8)    3.95700000  *   2.25400000  *  13.26100000  *
    53       C(ATOM     53  CG1 VAL A   8)    2.66500000  *   2.91100000  *  12.69300000  *
    54       C(ATOM     54  CG2 VAL A   8)    3.65900000  *   0.89400000  *  13.88700000  *
    55       N(ATOM     55  N   ALA A   9)    5.63400000  *   4.54200000  *  11.86000000  *
    56       C(ATOM     56  CA  ALA A   9)    5.60000000  *   5.71100000  *  11.01600000  *
    57       C(ATOM     57  C   ALA A   9)    6.44000000  *   5.49900000  *   9.77600000  *
    58       O(ATOM     58  O   ALA A   9)    6.03600000  *   5.88200000  *   8.64900000  *
    59       C(ATOM     59  CB  ALA A   9)    6.02900000  *   6.95000000  *  11.78700000  *
    60       N(ATOM     60  N   ARG A  10)    7.63700000  *   4.88500000  *   9.91600000  *
    61       C(ATOM     61  CA  ARG A  10)    8.47000000  *   4.57700000  *   8.76400000  *
    62       C(ATOM     62  C   ARG A  10)    7.77500000  *   3.58000000  *   7.82700000  *
    63       O(ATOM     63  O   ARG A  10)    7.80800000  *   3.73700000  *   6.59300000  *
    64       C(ATOM     64  CB  ARG A  10)    9.82200000  *   3.99000000  *   9.19600000  *
    65       C(ATOM     65  CG  ARG A  10)   10.73200000  *   3.59000000  *   8.05200000  *
    66       C(ATOM     66  CD  ARG A  10)   11.19400000  *   4.70600000  *   7.14500000  *
    67       N(ATOM     67  NE  ARG A  10)   12.08900000  *   5.61100000  *   7.86300000  *
    68       C(ATOM     68  CZ  ARG A  10)   12.64000000  *   6.70200000  *   7.33200000  *
    69       N(ATOM     69  NH1 ARG A  10)   12.44100000  *   7.02900000  *   6.06400000  *
    70       N(ATOM     70  NH2 ARG A  10)   13.38800000  *   7.49300000  *   8.10100000  *
    71       N(ATOM     71  N   SER A  11)    7.18300000  *   2.51700000  *   8.38700000  *
    72       C(ATOM     72  CA  SER A  11)    6.49400000  *   1.54700000  *   7.53800000  *
    73       C(ATOM     73  C   SER A  11)    5.36100000  *   2.22500000  *   6.73900000  *
    74       O(ATOM     74  O   SER A  11)    5.18800000  *   1.98300000  *   5.51900000  *
    75       C(ATOM     75  CB  SER A  11)    5.94900000  *   0.42400000  *   8.34800000  *
    76       O(ATOM     76  OG  SER A  11)    7.01300000  *  -0.26700000  *   9.01800000  *
    77       N(ATOM     77  N   ASN A  12)    4.63000000  *   3.10400000  *   7.40000000  *
    78       C(ATOM     78  CA  ASN A  12)    3.54300000  *   3.84200000  *   6.71700000  *
    79       C(ATOM     79  C   ASN A  12)    4.09000000  *   4.78200000  *   5.67600000  *
    80       O(ATOM     80  O   ASN A  12)    3.49300000  *   4.94800000  *   4.57700000  *
    81       C(ATOM     81  CB  ASN A  12)    2.68800000  *   4.56800000  *   7.72900000  *
    82       C(ATOM     82  CG  ASN A  12)    1.85000000  *   3.64700000  *   8.58000000  *
    83       O(ATOM     83  OD1 ASN A  12)    1.57800000  *   2.48100000  *   8.19300000  *
    84       N(ATOM     84  ND2 ASN A  12)    1.43200000  *   4.11000000  *   9.73500000  *
    85       N(ATOM     85  N   PHE A  13)    5.22700000  *   5.41800000  *   5.94900000  *
    86       C(ATOM     86  CA  PHE A  13)    5.88500000  *   6.30000000  *   5.01400000  *
    87       C(ATOM     87  C   PHE A  13)    6.27900000  *   5.53600000  *   3.74300000  *
    88       O(ATOM     88  O   PHE A  13)    6.05600000  *   6.01000000  *   2.60300000  *
    89       C(ATOM     89  CB  PHE A  13)    7.10100000  *   6.93100000  *   5.71000000  *
    90       C(ATOM     90  CG  PHE A  13)    7.86600000  *   7.84900000  *   4.80900000  *
    91       C(ATOM     91  CD1 PHE A  13)    7.54300000  *   9.22200000  *   4.75800000  *
    92       C(ATOM     92  CD2 PHE A  13)    8.93700000  *   7.38200000  *   4.02900000  *
    93       C(ATOM     93  CE1 PHE A  13)    8.25500000  *  10.08400000  *   3.93000000  *
    94       C(ATOM     94  CE2 PHE A  13)    9.61200000  *   8.21000000  *   3.14800000  *
    95       C(ATOM     95  CZ  PHE A  13)    9.28800000  *   9.57200000  *   3.13200000  *
    96       N(ATOM     96  N   ASN A  14)    6.84500000  *   4.34300000  *   3.92200000  *
    97       C(ATOM     97  CA  ASN A  14)    7.27300000  *   3.58000000  *   2.77500000  *
    98       C(ATOM     98  C   ASN A  14)    6.10400000  *   3.12600000  *   1.89000000  *
    99       O(ATOM     99  O   ASN A  14)    6.23200000  *   3.10100000  *   0.67000000  *
   100       C(ATOM    100  CB  ASN A  14)    8.15500000  *   2.38900000  *   3.19000000  *
   101       C(ATOM    101  CG  ASN A  14)    9.53600000  *   2.86400000  *   3.68500000  *
   102       O(ATOM    102  OD1 ASN A  14)   10.01200000  *   3.91800000  *   3.27700000  *
   103       N(ATOM    103  ND2 ASN A  14)   10.15100000  *   2.00800000  *   4.51600000  *
   104       N(ATOM    104  N   VAL A  15)    4.96300000  *   2.81100000  *   2.51000000  *
   105       C(ATOM    105  CA  VAL A  15)    3.78100000  *   2.48800000  *   1.70300000  *
   106       C(ATOM    106  C   VAL A  15)    3.28500000  *   3.75500000  *   0.98400000  *
   107       O(ATOM    107  O   VAL A  15)    2.95600000  *   3.70900000  *  -0.22600000  *
   108       C(ATOM    108  CB  VAL A  15)    2.70300000  *   1.81700000  *   2.54600000  *
   109       C(ATOM    109  CG1 VAL A  15)    1.36800000  *   1.77300000  *   1.78000000  *
   110       C(ATOM    110  CG2 VAL A  15)    3.14300000  *   0.41500000  *   2.94700000  *
   111       N(ATOM    111  N   CYS A  16)    3.23300000  *   4.88900000  *   1.67900000  *
   112       C(ATOM    112  CA  CYS A  16)    2.84500000  *   6.15400000  *   1.08300000  *
   113       C(ATOM    113  C   CYS A  16)    3.66600000  *   6.47700000  *  -0.16700000  *
   114       O(ATOM    114  O   CYS A  16)    3.14500000  *   7.03000000  *  -1.13600000  *
   115       C(ATOM    115  CB  CYS A  16)    2.95500000  *   7.26800000  *   2.13900000  *
   116       S(ATOM    116  SG  CYS A  16)    2.55000000  *   8.91500000  *   1.58900000  *
   117       N(ATOM    117  N   ARG A  17)    4.96300000  *   6.14600000  *  -0.12300000  *
   118       C(ATOM    118  CA  ARG A  17)    5.82100000  *   6.44800000  *  -1.24700000  *
   119       C(ATOM    119  C   ARG A  17)    5.62100000  *   5.55000000  *  -2.46700000  *
   120       O(ATOM    120  O   ARG A  17)    6.03400000  *   5.91600000  *  -3.54800000  *
   121       C(ATOM    121  CB  ARG A  17)    7.30300000  *   6.40700000  *  -0.77500000  *
   122       C(ATOM    122  CG  ARG A  17)    7.66400000  *   7.57100000  *   0.14500000  *
   123       C(ATOM    123  CD  ARG A  17)    7.89600000  *   8.87900000  *  -0.55700000  *
   124       N(ATOM    124  NE  ARG A  17)    9.13600000  *   8.82700000  *  -1.32700000  *
   125       C(ATOM    125  CZ  ARG A  17)    9.46800000  *   9.57600000  *  -2.37300000  *
   126       N(ATOM    126  NH1 ARG A  17)    8.59900000  *  10.41500000  *  -2.93900000  *
   127       N(ATOM    127  NH2 ARG A  17)   10.72000000  *   9.53400000  *  -2.85900000  *
   128       N(ATOM    128  N   LEU A  18)    5.04500000  *   4.33800000  *  -2.26900000  *
   129       C(ATOM    129  CA  LEU A  18)    4.94500000  *   3.38800000  *  -3.38000000  *
   130       C(ATOM    130  C   LEU A  18)    4.31100000  *   4.00200000  *  -4.66400000  *
   131       O(ATOM    131  O   LEU A  18)    4.86300000  *   3.77700000  *  -5.74500000  *
   132       C(ATOM    132  CB  LEU A  18)    4.20000000  *   2.12500000  *  -2.97500000  *
   133       C(ATOM    133  CG  LEU A  18)    4.92700000  *   1.18600000  *  -2.01300000  *
   134       C(ATOM    134  CD1 LEU A  18)    3.98300000  *   0.07500000  *  -1.61700000  *
   135       C(ATOM    135  CD2 LEU A  18)    6.16300000  *   0.58700000  *  -2.63300000  *
   136       N(ATOM    136  N   PRO A  19)    3.20900000  *   4.74700000  *  -4.56400000  *
   137       C(ATOM    137  CA  PRO A  19)    2.65000000  *   5.34300000  *  -5.80200000  *
   138       C(ATOM    138  C   PRO A  19)    3.42100000  *   6.52500000  *  -6.31200000  *
   139       O(ATOM    139  O   PRO A  19)    3.07600000  *   7.05600000  *  -7.38300000  *
   140       C(ATOM    140  CB  PRO A  19)    1.22900000  *   5.75900000  *  -5.43100000  *
   141       C(ATOM    141  CG  PRO A  19)    1.23800000  *   5.88600000  *  -3.91700000  *
   142       C(ATOM    142  CD  PRO A  19)    2.25700000  *   4.86800000  *  -3.43900000  *
   143       N(ATOM    143  N   GLY A  20)    4.42500000  *   7.01100000  *  -5.55600000  *
   144       C(ATOM    144  CA  GLY A  20)    5.23000000  *   8.15400000  *  -5.95600000  *
   145       C(ATOM    145  C   GLY A  20)    4.90200000  *   9.45000000  *  -5.25900000  *
   146       O(ATOM    146  O   GLY A  20)    5.44100000  *  10.51000000  *  -5.63400000  *
   147       N(ATOM    147  N   THR A  21)    4.06500000  *   9.39200000  *  -4.23400000  *
   148       C(ATOM    148  CA  THR A  21)    3.67700000  *  10.55900000  *  -3.46200000  *
   149       C(ATOM    149  C   THR A  21)    4.90300000  *  11.35500000  *  -3.01900000  *
   150       O(ATOM    150  O   THR A  21)    5.84400000  *  10.70900000  *  -2.46500000  *
   151       C(ATOM    151  CB  THR A  21)    2.94500000  *  10.10800000  *  -2.19700000  *
   152       O(ATOM    152  OG1 THR A  21)    1.96500000  *   9.11200000  *  -2.55900000  *
   153       C(ATOM    153  CG2 THR A  21)    2.28700000  *  11.25700000  *  -1.48200000  *
   154       N(ATOM    154  N   PRO A  22)    4.90900000  *  12.65900000  *  -3.12700000  *
   155       C(ATOM    155  CA  PRO A  22)    6.03500000  *  13.45900000  *  -2.62200000  *
   156       C(ATOM    156  C   PRO A  22)    6.36200000  *  13.13900000  *  -1.17400000  *
   157       O(ATOM    157  O   PRO A  22)    5.47300000  *  12.95900000  *  -0.32300000  *
   158       C(ATOM    158  CB  PRO A  22)    5.52800000  *  14.89500000  *  -2.82500000  *
   159       C(ATOM    159  CG  PRO A  22)    4.61400000  *  14.84600000  *  -4.05900000  *
   160       C(ATOM    160  CD  PRO A  22)    3.90400000  *  13.49300000  *  -3.88500000  *
   161       N(ATOM    161  N   GLU A  23)    7.67400000  *  13.18400000  *  -0.85400000  *
   162       C(ATOM    162  CA  GLU A  23)    8.08000000  *  12.98700000  *   0.54200000  *
   163       C(ATOM    163  C   GLU A  23)    7.37600000  *  13.93300000  *   1.48000000  *
   164       O(ATOM    164  O   GLU A  23)    7.03500000  *  13.56400000  *   2.60100000  *
   165       C(ATOM    165  CB  GLU A  23)    9.62500000  *  13.15100000  *   0.69800000  *
   166       C(ATOM    166  CG  GLU A  23)   10.38700000  *  12.02100000  *   0.05800000  *
   167       C(ATOM    167  CD  GLU A  23)   11.88500000  *  12.04800000  *   0.39900000  *
   168       O(ATOM    168  OE1 GLU A  23)   12.42800000  *  13.09600000  *   0.74300000  *
   169       O(ATOM    169  OE2 GLU A  23)   12.52100000  *  10.92300000  *   0.29300000  *
   170       N(ATOM    170  N   ALA A  24)    7.16000000  *  15.19400000  *   1.05900000  *
   171       C(ATOM    171  CA  ALA A  24)    6.59200000  *  16.18400000  *   1.97200000  *
   172       C(ATOM    172  C   ALA A  24)    5.17500000  *  15.81800000  *   2.41000000  *
   173       O(ATOM    173  O   ALA A  24)    4.77700000  *  16.01000000  *   3.54000000  *
   174       C(ATOM    174  CB  ALA A  24)    6.62600000  *  17.59800000  *   1.37300000  *
   175       N(ATOM    175  N   LEU A  25)    4.37700000  *  15.26500000  *   1.44700000  *
   176       C(ATOM    176  CA  LEU A  25)    3.03300000  *  14.78600000  *   1.80000000  *
   177       C(ATOM    177  C   LEU A  25)    3.07700000  *  13.51400000  *   2.64100000  *
   178       O(ATOM    178  O   LEU A  25)    2.31000000  *  13.36700000  *   3.58100000  *
   179       C(ATOM    179  CB  LEU A  25)    2.18600000  *  14.57700000  *   0.51800000  *
   180       C(ATOM    180  CG  LEU A  25)    1.81400000  *  15.96500000  *  -0.11700000  *
   181       C(ATOM    181  CD1 LEU A  25)    1.22200000  *  15.71700000  *  -1.50000000  *
   182       C(ATOM    182  CD2 LEU A  25)    0.62300000  *  16.57200000  *   0.76100000  *
   183       N(ATOM    183  N   CYS A  26)    4.01000000  *  12.60700000  *   2.30700000  *
   184       C(ATOM    184  CA  CYS A  26)    4.11600000  *  11.43400000  *   3.16100000  *
   185       C(ATOM    185  C   CYS A  26)    4.59000000  *  11.79000000  *   4.57600000  *
   186       O(ATOM    186  O   CYS A  26)    4.22200000  *  11.09000000  *   5.54000000  *
   187       C(ATOM    187  CB  CYS A  26)    5.02200000  *  10.37800000  *   2.54200000  *
   188       S(ATOM    188  SG  CYS A  26)    4.34300000  *   9.67700000  *   1.00400000  *
   189       N(ATOM    189  N   ALA A  27)    5.38700000  *  12.84500000  *   4.70100000  *
   190       C(ATOM    190  CA  ALA A  27)    5.81800000  *  13.34000000  *   6.02300000  *
   191       C(ATOM    191  C   ALA A  27)    4.64800000  *  13.79200000  *   6.87000000  *
   192       O(ATOM    192  O   ALA A  27)    4.46600000  *  13.32900000  *   7.98600000  *
   193       C(ATOM    193  CB  ALA A  27)    6.88200000  *  14.42700000  *   5.83800000  *
   194       N(ATOM    194  N   THR A  28)    3.82900000  *  14.74100000  *   6.33800000  *
   195       C(ATOM    195  CA  THR A  28)    2.70800000  *  15.16300000  *   7.15000000  *
   196       C(ATOM    196  C   THR A  28)    1.69600000  *  14.05800000  *   7.40100000  *
   197       O(ATOM    197  O   THR A  28)    0.98400000  *  14.05100000  *   8.40600000  *
   198       C(ATOM    198  CB  THR A  28)    2.00900000  *  16.42600000  *   6.56700000  *
   199       O(ATOM    199  OG1 THR A  28)    1.67800000  *  16.12200000  *   5.19900000  *
   200       C(ATOM    200  CG2 THR A  28)    2.87800000  *  17.65400000  *   6.66600000  *
   201       N(ATOM    201  N   TYR A  29)    1.59800000  *  13.08200000  *   6.45500000  *
   202       C(ATOM    202  CA  TYR A  29)    0.68200000  *  12.00700000  *   6.65900000  *
   203       C(ATOM    203  C   TYR A  29)    1.06300000  *  11.05900000  *   7.80800000  *
   204       O(ATOM    204  O   TYR A  29)    0.20300000  *  10.50700000  *   8.46300000  *
   205       C(ATOM    205  CB  TYR A  29)    0.56700000  *  11.22300000  *   5.28800000  *
   206       C(ATOM    206  CG  TYR A  29)    0.02000000  *   9.81400000  *   5.25100000  *
   207       C(ATOM    207  CD1 TYR A  29)   -1.33200000  *   9.55400000  *   5.51400000  *
   208       C(ATOM    208  CD2 TYR A  29)    0.84500000  *   8.73600000  *   4.93400000  *
   209       C(ATOM    209  CE1 TYR A  29)   -1.82100000  *   8.25000000  *   5.51600000  *
   210       C(ATOM    210  CE2 TYR A  29)    0.38500000  *   7.42900000  *   4.94200000  *
   211       C(ATOM    211  CZ  TYR A  29)   -0.94400000  *   7.19800000  *   5.24600000  *
   212       O(ATOM    212  OH  TYR A  29)   -1.38700000  *   5.91500000  *   5.23600000  *
   213       N(ATOM    213  N   THR A  30)    2.41200000  *  10.87000000  *   7.98600000  *
   214       C(ATOM    214  CA  THR A  30)    2.91000000  *   9.89100000  *   8.93400000  *
   215       C(ATOM    215  C   THR A  30)    3.53000000  *  10.40600000  *  10.22900000  *
   216       O(ATOM    216  O   THR A  30)    3.69000000  *   9.60300000  *  11.12800000  *
   217       C(ATOM    217  CB  THR A  30)    4.02200000  *   9.02500000  *   8.26100000  *
   218       O(ATOM    218  OG1 THR A  30)    5.07600000  *   9.88600000  *   7.85800000  *
   219       C(ATOM    219  CG2 THR A  30)    3.49200000  *   8.23800000  *   7.07800000  *
   220       N(ATOM    220  N   GLY A  31)    3.89700000  *  11.67000000  *  10.23100000  *
   221       C(ATOM    221  CA  GLY A  31)    4.71800000  *  12.22100000  *  11.31600000  *
   222       C(ATOM    222  C   GLY A  31)    6.22100000  *  12.14300000  *  11.06100000  *
   223       O(ATOM    223  O   GLY A  31)    6.98500000  *  12.68000000  *  11.88900000  *
   224       N(ATOM    224  N   CYS A  32)    6.64600000  *  11.50900000  *   9.97100000  *
   225       C(ATOM    225  CA  CYS A  32)    8.05000000  *  11.58900000  *   9.56000000  *
   226       C(ATOM    226  C   CYS A  32)    8.35200000  *  13.00800000  *   9.14800000  *
   227       O(ATOM    227  O   CYS A  32)    7.46100000  *  13.87500000  *   8.94600000  *
   228       C(ATOM    228  CB  CYS A  32)    8.36100000  *  10.61800000  *   8.45300000  *
   229       S(ATOM    229  SG  CYS A  32)    7.98700000  *   8.85900000  *   8.83600000  *
   230       N(ATOM    230  N   ILE A  33)    9.65400000  *  13.31400000  *   8.96900000  *
   231       C(ATOM    231  CA  ILE A  33)   10.15100000  *  14.63400000  *   8.67100000  *
   232       C(ATOM    232  C   ILE A  33)   11.20300000  *  14.52100000  *   7.57800000  *
   233       O(ATOM    233  O   ILE A  33)   11.84100000  *  13.47100000  *   7.38000000  *
   234       C(ATOM    234  CB  ILE A  33)   10.73600000  *  15.34800000  *   9.92400000  *
   235       C(ATOM    235  CG1 ILE A  33)   11.97900000  *  14.63700000  *  10.47700000  *
   236       C(ATOM    236  CG2 ILE A  33)    9.64900000  *  15.46300000  *  10.97100000  *
   237       C(ATOM    237  CD1 ILE A  33)   12.66000000  *  15.41800000  *  11.58200000  *
   238       N(ATOM    238  N   ILE A  34)   11.42500000  *  15.63800000  *   6.91000000  *
   239       C(ATOM    239  CA  ILE A  34)   12.46300000  *  15.80300000  *   5.90000000  *
   240       C(ATOM    240  C   ILE A  34)   13.47100000  *  16.80000000  *   6.49200000  *
   241       O(ATOM    241  O   ILE A  34)   13.05200000  *  17.90200000  *   6.90900000  *
   242       C(ATOM    242  CB  ILE A  34)   11.95600000  *  16.34300000  *   4.56000000  *
   243       C(ATOM    243  CG1 ILE A  34)   10.85800000  *  15.44700000  *   4.00300000  *
   244       C(ATOM    244  CG2 ILE A  34)   13.11700000  *  16.47600000  *   3.58000000  *
   245       C(ATOM    245  CD1 ILE A  34)   10.20700000  *  16.14000000  *   2.79800000  *
   246       N(ATOM    246  N   ILE A  35)   14.76700000  *  16.44500000  *   6.43700000  *
   247       C(ATOM    247  CA  ILE A  35)   15.80100000  *  17.36200000  *   6.84500000  *
   248       C(ATOM    248  C   ILE A  35)   16.81000000  *  17.52900000  *   5.72000000  *
   249       O(ATOM    249  O   ILE A  35)   16.97300000  *  16.61900000  *   4.91700000  *
   250       C(ATOM    250  CB  ILE A  35)   16.53100000  *  16.88200000  *   8.15700000  *
   251       C(ATOM    251  CG1 ILE A  35)   17.20400000  *  15.53800000  *   7.95900000  *
   252       C(ATOM    252  CG2 ILE A  35)   15.53700000  *  16.88900000  *   9.31600000  *
   253       C(ATOM    253  CD1 ILE A  35)   18.11400000  *  15.14600000  *   9.12900000  *
   254       N(ATOM    254  N   PRO A  36)   17.54300000  *  18.64300000  *   5.68100000  *
   255       C(ATOM    255  CA  PRO A  36)   18.54000000  *  18.82900000  *   4.63300000  *
   256       C(ATOM    256  C   PRO A  36)   19.81800000  *  18.04000000  *   4.84600000  *
   257       O(ATOM    257  O   PRO A  36)   20.54400000  *  17.78900000  *   3.88000000  *
   258       C(ATOM    258  CB  PRO A  36)   18.74500000  *  20.33700000  *   4.62400000  *
   259       C(ATOM    259  CG  PRO A  36)   18.29700000  *  20.86700000  *   5.94500000  *
   260       C(ATOM    260  CD  PRO A  36)   17.24300000  *  19.87000000  *   6.44900000  *
   261       N(ATOM    261  N   GLY A  37)   20.08800000  *  17.75800000  *   6.09800000  *
   262       C(ATOM    262  CA  GLY A  37)   21.28900000  *  16.99200000  *   6.48700000  *
   263       C(ATOM    263  C   GLY A  37)   21.01600000  *  15.52100000  *   6.38500000  *
   264       O(ATOM    264  O   GLY A  37)   20.00600000  *  15.06900000  *   5.80700000  *
   265       N(ATOM    265  N   ALA A  38)   21.91800000  *  14.71400000  *   6.93700000  *
   266       C(ATOM    266  CA  ALA A  38)   21.88000000  *  13.27800000  *   6.87700000  *
   267       C(ATOM    267  C   ALA A  38)   21.76300000  *  12.58200000  *   8.24900000  *
   268       O(ATOM    268  O   ALA A  38)   21.70100000  *  11.34700000  *   8.32500000  *
   269       C(ATOM    269  CB  ALA A  38)   23.12300000  *  12.72500000  *   6.15600000  *
   270       N(ATOM    270  N   THR A  39)   21.71700000  *  13.40100000  *   9.29600000  *
   271       C(ATOM    271  CA  THR A  39)   21.78400000  *  12.87400000  *  10.64400000  *
   272       C(ATOM    272  C   THR A  39)   20.48700000  *  13.10700000  *  11.37100000  *
   273       O(ATOM    273  O   THR A  39)   20.19900000  *  14.23600000  *  11.81500000  *
   274       C(ATOM    274  CB  THR A  39)   22.95500000  *  13.57200000  *  11.49100000  *
   275       O(ATOM    275  OG1 THR A  39)   24.15200000  *  13.56900000  *  10.77400000  *
   276       C(ATOM    276  CG2 THR A  39)   23.19900000  *  12.88700000  *  12.82500000  *
   277       N(ATOM    277  N   CYS A  40)   19.71700000  *  12.03500000  *  11.53600000  *
   278       C(ATOM    278  CA  CYS A  40)   18.42300000  *  12.14700000  *  12.21500000  *
   279       C(ATOM    279  C   CYS A  40)   18.63100000  *  12.25600000  *  13.71000000  *
   280       O(ATOM    280  O   CYS A  40)   19.46700000  *  11.51100000  *  14.26600000  *
   281       C(ATOM    281  CB  CYS A  40)   17.55800000  *  10.93700000  *  11.86200000  *
   282       S(ATOM    282  SG  CYS A  40)   17.10000000  *  10.84800000  *  10.11000000  *
   283       N(ATOM    283  N   PRO A  41)   17.80900000  *  13.04100000  *  14.39600000  *
   284       C(ATOM    284  CA  PRO A  41)   17.90500000  *  13.20500000  *  15.84700000  *
   285       C(ATOM    285  C   PRO A  41)   17.32400000  *  12.02600000  *  16.56700000  *
   286       O(ATOM    286  O   PRO A  41)   16.59500000  *  11.18900000  *  15.99100000  *
   287       C(ATOM    287  CB  PRO A  41)   17.19100000  *  14.51400000  *  16.10800000  *
   288       C(ATOM    288  CG  PRO A  41)   16.05000000  *  14.45900000  *  15.05100000  *
   289       C(ATOM    289  CD  PRO A  41)   16.77000000  *  13.95400000  *  13.80500000  *
   290       N(ATOM    290  N   GLY A  42)   17.60400000  *  11.96500000  *  17.89600000  *
   291       C(ATOM    291  CA  GLY A  42)   17.20400000  *  10.80800000  *  18.70100000  *
   292       C(ATOM    292  C   GLY A  42)   15.70900000  *  10.57000000  *  18.86200000  *
   293       O(ATOM    293  O   GLY A  42)   15.28000000  *   9.47600000  *  19.23800000  *
   294       N(ATOM    294  N   ASP A  43)   14.92500000  *  11.67700000  *  18.64500000  *
   295       C(ATOM    295  CA  ASP A  43)   13.46900000  *  11.53600000  *  18.72800000  *
   296       C(ATOM    296  C   ASP A  43)   12.82900000  *  11.27300000  *  17.30800000  *
   297       O(ATOM    297  O   ASP A  43)   11.60800000  *  11.11800000  *  17.27000000  *
   298       C(ATOM    298  CB  ASP A  43)   12.77600000  *  12.65300000  *  19.45600000  *
   299       C(ATOM    299  CG  ASP A  43)   13.08300000  *  14.01300000  *  18.90000000  *
   300       O(ATOM    300  OD1 ASP A  43)   14.05200000  *  14.18000000  *  18.16500000  *
   301       O(ATOM    301  OD2 ASP A  43)   12.24400000  *  14.90200000  *  19.23900000  *
   302       N(ATOM    302  N   TYR A  44)   13.66100000  *  11.16500000  *  16.29900000  *
   303       C(ATOM    303  CA  TYR A  44)   13.24400000  *  10.73400000  *  14.97200000  *
   304       C(ATOM    304  C   TYR A  44)   14.22000000  *   9.67100000  *  14.48500000  *
   305       O(ATOM    305  O   TYR A  44)   14.90500000  *   9.80100000  *  13.47100000  *
   306       C(ATOM    306  CB  TYR A  44)   13.12200000  *  11.87900000  *  13.95500000  *
   307       C(ATOM    307  CG  TYR A  44)   11.96400000  *  12.78500000  *  14.27300000  *
   308       C(ATOM    308  CD1 TYR A  44)   12.04800000  *  13.83800000  *  15.19800000  *
   309       C(ATOM    309  CD2 TYR A  44)   10.73500000  *  12.57400000  *  13.62600000  *
   310       C(ATOM    310  CE1 TYR A  44)   10.97200000  *  14.65400000  *  15.46500000  *
   311       C(ATOM    311  CE2 TYR A  44)    9.62600000  *  13.38300000  *  13.92200000  *
   312       C(ATOM    312  CZ  TYR A  44)    9.75600000  *  14.38900000  *  14.84100000  *
   313       O(ATOM    313  OH  TYR A  44)    8.68200000  *  15.21100000  *  15.10700000  *
   314       N(ATOM    314  N   ALA A  45)   14.31700000  *   8.60900000  *  15.30200000  *
   315       C(ATOM    315  CA  ALA A  45)   15.39300000  *   7.61800000  *  15.20000000  *
   316       C(ATOM    316  C   ALA A  45)   15.15700000  *   6.49800000  *  14.21800000  *
   317       O(ATOM    317  O   ALA A  45)   16.05500000  *   5.68200000  *  13.99200000  *
   318       C(ATOM    318  CB  ALA A  45)   15.60000000  *   7.01100000  *  16.59900000  *
   319       N(ATOM    319  N   ASN A  46)   13.92500000  *   6.43500000  *  13.67000000  *
   320       C(ATOM    320  CA  ASN A  46)   13.50100000  *   5.32900000  *  12.79700000  *
   321       C(ATOM    321  C   ASN A  46)   13.28100000  *   5.77100000  *  11.34900000  *
   322       O(ATOM    322  OXT ASN A  46)   13.69100000  *   6.90100000  *  11.00100000  *
   323       C(ATOM    323  CB  ASN A  46)   12.25200000  *   4.65100000  *  13.38600000  *
   324       C(ATOM    324  CG  ASN A  46)   12.52600000  *   4.13800000  *  14.76400000  *
   325       O(ATOM    325  OD1 ASN A  46)   13.44300000  *   3.21800000  *  14.92400000  *
   326       N(ATOM    326  ND2 ASN A  46)   11.91600000  *   4.60100000  *  15.74600000  *
   327       O(ATOM    327  O   ASN A  46)   12.67800000  *   4.98000000  *  10.60000000  *
   328       C(HETATM  328  C1  EOH A  66)   14.82300000  *  -0.15900000  *  13.27100000  *
   329       C(HETATM  329  C2  EOH A  66)   15.70200000  *   0.90400000  *  12.77100000  *
   330       O(HETATM  330  O   EOH A  66)   15.02900000  *   2.13400000  *  12.50100000  *
   331       H(ATOM    331 1H   THR A   1)   16.93500000  *  13.82600000  *   2.46200000  *
   332       H(ATOM    332 2H   THR A   1)   16.00300000  *  14.55700000  *   3.61600000  *
   333       H(ATOM    333  HA  THR A   1)   16.93700000  *  11.95600000  *   3.56500000  *
   334       H(ATOM    334  HB  THR A   1)   18.03100000  *  13.66300000  *   5.87400000  *
   335       H(ATOM    335  HG1 THR A   1)   19.33900000  *  13.64300000  *   3.74400000  *
   336       H(ATOM    336 1HG2 THR A   1)   17.21700000  *  11.53300000  *   6.70600000  *
   337       H(ATOM    337 2HG2 THR A   1)   18.18000000  *  10.68300000  *   5.47300000  *
   338       H(ATOM    338 3HG2 THR A   1)   18.99400000  *  11.63700000  *   6.73600000  *
   339       H(ATOM    339  H   THR A   2)   15.49100000  *  10.76500000  *   4.73900000  *
   340       H(ATOM    340  HA  THR A   2)   13.52500000  *  12.51200000  *   6.10400000  *
   341       H(ATOM    341  HB  THR A   2)   11.81200000  *  10.54900000  *   5.76900000  *
   342       H(ATOM    342  HG1 THR A   2)   13.52900000  *   8.89000000  *   5.55300000  *
   343       H(ATOM    343 1HG2 THR A   2)   11.88000000  *  12.53700000  *   4.28400000  *
   344       H(ATOM    344 2HG2 THR A   2)   13.12500000  *  11.73000000  *   3.30100000  *
   345       H(ATOM    345 3HG2 THR A   2)   11.49200000  *  11.03200000  *   3.41700000  *
   346       H(ATOM    346  H   CYS A   3)   12.71800000  *  11.91100000  *   8.14400000  *
   347       H(ATOM    347  HA  CYS A   3)   14.16400000  *   9.75500000  *   9.61000000  *
   348       H(ATOM    348 1HB  CYS A   3)   13.57900000  *  12.55100000  *  10.69100000  *
   349       H(ATOM    349 2HB  CYS A   3)   14.48800000  *  11.25000000  *  11.50800000  *
   350       H(ATOM    350  H   CYS A   4)   12.77900000  *   8.66900000  *  11.04700000  *
   351       H(ATOM    351  HA  CYS A   4)   10.01600000  *   9.77400000  *  11.09600000  *
   352       H(ATOM    352 1HB  CYS A   4)   10.88000000  *   6.88600000  *  10.72100000  *
   353       H(ATOM    353 2HB  CYS A   4)    9.20400000  *   7.36600000  *  11.10400000  *
   354       H(ATOM    354  HA  PRO A   5)   10.44800000  *   9.33600000  *  15.32100000  *
   355       H(ATOM    355 1HB  PRO A   5)    8.51100000  *  10.95400000  *  15.36800000  *
   356       H(ATOM    356 2HB  PRO A   5)    7.72600000  *   9.56000000  *  16.16100000  *
   357       H(ATOM    357 1HG  PRO A   5)    6.62200000  *  10.55800000  *  13.92500000  *
   358       H(ATOM    358 2HG  PRO A   5)    6.78400000  *   8.78500000  *  14.04800000  *
   359       H(ATOM    359 1HD  PRO A   5)    7.89800000  *   9.19100000  *  12.07200000  *
   360       H(ATOM    360 2HD  PRO A   5)    8.50600000  *  10.77700000  *  12.61800000  *
   361       H(ATOM    361  H   SER A   6)    8.68900000  *   6.88000000  *  13.80100000  *
   362       H(ATOM    362  HA  SER A   6)    9.49700000  *   5.15200000  *  15.95600000  *
   363       H(ATOM    363 1HB  SER A   6)    7.36500000  *   4.16900000  *  16.42000000  *
   364       H(ATOM    364 2HB  SER A   6)    7.26600000  *   5.92800000  *  16.70300000  *
   365       H(ATOM    365  HG  SER A   6)    5.37800000  *   5.15800000  *  15.20700000  *
   366       H(ATOM    366  H   ILE A   7)    8.92600000  *   2.83100000  *  15.26500000  *
   367       H(ATOM    367  HA  ILE A   7)    9.80900000  *   2.31800000  *  12.65000000  *
   368       H(ATOM    368  HB  ILE A   7)    8.51200000  *   0.60000000  *  14.72000000  *
   369       H(ATOM    369 1HG1 ILE A   7)   10.70900000  *   1.58400000  *  15.00800000  *
   370       H(ATOM    370 2HG1 ILE A   7)   11.20100000  *   0.94200000  *  13.41600000  *
   371       H(ATOM    371 1HG2 ILE A   7)    7.82900000  *  -0.37700000  *  12.63100000  *
   372       H(ATOM    372 2HG2 ILE A   7)    9.50900000  *  -0.35100000  *  12.04200000  *
   373       H(ATOM    373 3HG2 ILE A   7)    9.06900000  *  -1.37200000  *  13.43200000  *
   374       H(ATOM    374 1HD1 ILE A   7)   12.33400000  *  -0.23300000  *  15.24100000  *
   375       H(ATOM    375 2HD1 ILE A   7)   10.75700000  *  -0.68300000  *  15.93400000  *
   376       H(ATOM    376 3HD1 ILE A   7)   11.24700000  *  -1.32300000  *  14.34700000  *
   377       H(ATOM    377  H   VAL A   8)    6.51200000  *   2.13100000  *  14.07900000  *
   378       H(ATOM    378  HA  VAL A   8)    5.33400000  *   1.28200000  *  11.68800000  *
   379       H(ATOM    379  HB  VAL A   8)    4.22100000  *   2.94400000  *  14.06300000  *
   380       H(ATOM    380 1HG1 VAL A   8)    2.91200000  *   3.87800000  *  12.25400000  *
   381       H(ATOM    381 2HG1 VAL A   8)    2.23500000  *   2.26400000  *  11.92800000  *
   382       H(ATOM    382 3HG1 VAL A   8)    1.94400000  *   3.05100000  *  13.49900000  *
   383       H(ATOM    383 1HG2 VAL A   8)    4.58200000  *   0.46200000  *  14.27400000  *
   384       H(ATOM    384 2HG2 VAL A   8)    2.94600000  *   1.01800000  *  14.70200000  *
   385       H(ATOM    385 3HG2 VAL A   8)    3.23600000  *   0.23100000  *  13.13200000  *
   386       H(ATOM    386  H   ALA A   9)    6.00100000  *   4.60800000  *  12.79900000  *
   387       H(ATOM    387  HA  ALA A   9)    4.55800000  *   5.82500000  *  10.71600000  *
   388       H(ATOM    388 1HB  ALA A   9)    5.40000000  *   7.06500000  *  12.67000000  *
   389       H(ATOM    389 2HB  ALA A   9)    7.07000000  *   6.84500000  *  12.09400000  *
   390       H(ATOM    390 3HB  ALA A   9)    5.92500000  *   7.82800000  *  11.15000000  *
   391       H(ATOM    391  H   ARG A  10)    7.97000000  *   4.63000000  *  10.83500000  *
   392       H(ATOM    392  HA  ARG A  10)    8.60300000  *   5.54200000  *   8.27500000  *
   393       H(ATOM    393 1HB  ARG A  10)    9.61000000  *   3.11100000  *   9.80500000  *
   394       H(ATOM    394 2HB  ARG A  10)   10.32200000  *   4.74800000  *   9.79900000  *
   395       H(ATOM    395 1HG  ARG A  10)   10.17800000  *   2.86000000  *   7.46200000  *
   396       H(ATOM    396 2HG  ARG A  10)   11.60300000  *   3.11800000  *   8.50600000  *
   397       H(ATOM    397 1HD  ARG A  10)   11.72500000  *   4.27600000  *   6.29500000  *
   398       H(ATOM    398 2HD  ARG A  10)   10.32400000  *   5.26300000  *   6.79700000  *
   399       H(ATOM    399  HE  ARG A  10)   12.23500000  *   5.26200000  *   8.88500000  *
   400       H(ATOM    400 1HH1 ARG A  10)   12.85800000  *   7.87900000  *   5.68500000  *
   401       H(ATOM    401 2HH1 ARG A  10)   11.87000000  *   6.43100000  *   5.46700000  *
   402       H(ATOM    402  HH2 ARG A  10)   13.80100000  *   8.34100000  *   7.71200000  *
   403       H(ATOM    403  H   SER A  11)    7.21500000  *   2.39100000  *   9.38900000  *
   404       H(ATOM    404  HA  SER A  11)    7.25800000  *   1.14200000  *   6.87400000  *
   405       H(ATOM    405 1HB  SER A  11)    5.25600000  *   0.82400000  *   9.08800000  *
   406       H(ATOM    406 2HB  SER A  11)    5.42800000  *  -0.26900000  *   7.68800000  *
   407       H(ATOM    407  HG  SER A  11)    6.81100000  *  -1.04300000  *   9.59900000  *
   408       H(ATOM    408  H   ASN A  12)    4.81100000  *   3.27700000  *   8.37900000  *
   409       H(ATOM    409  HA  ASN A  12)    2.92600000  *   3.10700000  *   6.19900000  *
   410       H(ATOM    410 1HB  ASN A  12)    2.03000000  *   5.24300000  *   7.18200000  *
   411       H(ATOM    411 2HB  ASN A  12)    3.35400000  *   5.14000000  *   8.37500000  *
   412       H(ATOM    412 1HD2 ASN A  12)    2.23200000  *   4.36200000  *  10.29700000  *
   413       H(ATOM    413 2HD2 ASN A  12)    0.85500000  *   4.92300000  *   9.57400000  *
   414       H(ATOM    414  H   PHE A  13)    5.67200000  *   5.29400000  *   6.84700000  *
   415       H(ATOM    415  HA  PHE A  13)    5.16300000  *   7.07000000  *   4.74100000  *
   416       H(ATOM    416 1HB  PHE A  13)    7.75900000  *   6.12700000  *   6.03900000  *
   417       H(ATOM    417 2HB  PHE A  13)    6.74400000  *   7.49500000  *   6.57200000  *
   418       H(ATOM    418  HD1 PHE A  13)    6.72900000  *   9.60600000  *   5.37300000  *
   419       H(ATOM    419  HD2 PHE A  13)    9.23300000  *   6.33800000  *   4.13100000  *
   420       H(ATOM    420  HE1 PHE A  13)    8.00800000  *  11.14500000  *   3.90600000  *
   421       H(ATOM    421  HE2 PHE A  13)   10.37500000  *   7.79700000  *   2.48800000  *
   422       H(ATOM    422  HZ  PHE A  13)    9.84300000  *  10.25700000  *   2.49100000  *
   423       H(ATOM    423  H   ASN A  14)    6.97200000  *   3.97900000  *   4.85600000  *
   424       H(ATOM    424  HA  ASN A  14)    7.86300000  *   4.30700000  *   2.21700000  *
   425       H(ATOM    425 1HB  ASN A  14)    7.66100000  *   1.84500000  *   3.99500000  *
   426       H(ATOM    426 2HB  ASN A  14)    8.29500000  *   1.73400000  *   2.33000000  *
   427       H(ATOM    427 1HD2 ASN A  14)    9.59700000  *   1.90800000  *   5.35500000  *
   428       H(ATOM    428 2HD2 ASN A  14)   10.24400000  *   1.11300000  *   4.05700000  *
   429       H(ATOM    429  H   VAL A  15)    4.92400000  *   2.79800000  *   3.51900000  *
   430       H(ATOM    430  HA  VAL A  15)    4.09400000  *   1.75400000  *   0.96000000  *
   431       H(ATOM    431  HB  VAL A  15)    2.56500000  *   2.40100000  *   3.45600000  *
   432       H(ATOM    432 1HG1 VAL A  15)    1.07400000  *   2.78600000  *   1.50400000  *
   433       H(ATOM    433 2HG1 VAL A  15)    1.48600000  *   1.17100000  *   0.87900000  *
   434       H(ATOM    434 3HG1 VAL A  15)    0.59900000  *   1.33200000  *   2.41400000  *
   435       H(ATOM    435 1HG2 VAL A  15)    4.08800000  *   0.47100000  *   3.48700000  *
   436       H(ATOM    436 2HG2 VAL A  15)    2.38500000  *  -0.03400000  *   3.58800000  *
   437       H(ATOM    437 3HG2 VAL A  15)    3.27100000  *  -0.19500000  *   2.05300000  *
   438       H(ATOM    438  H   CYS A  16)    3.46900000  *   4.89100000  *   2.66100000  *
   439       H(ATOM    439  HA  CYS A  16)    1.81000000  *   6.01900000  *   0.76800000  *
   440       H(ATOM    440 1HB  CYS A  16)    2.27700000  *   7.04500000  *   2.96200000  *
   441       H(ATOM    441 2HB  CYS A  16)    3.98100000  *   7.31100000  *   2.50400000  *
   442       H(ATOM    442  H   ARG A  17)    5.34000000  *   5.68700000  *   0.69400000  *
   443       H(ATOM    443  HA  ARG A  17)    5.48200000  *   7.44000000  *  -1.54700000  *
   444       H(ATOM    444 1HB  ARG A  17)    7.94000000  *   6.44300000  *  -1.65900000  *
   445       H(ATOM    445 2HB  ARG A  17)    7.46100000  *   5.47000000  *  -0.24100000  *
   446       H(ATOM    446 1HG  ARG A  17)    8.57200000  *   7.28800000  *   0.67700000  *
   447       H(ATOM    447 2HG  ARG A  17)    6.84100000  *   7.68800000  *   0.85000000  *
   448       H(ATOM    448 1HD  ARG A  17)    7.06100000  *   9.07300000  *  -1.23100000  *
   449       H(ATOM    449 2HD  ARG A  17)    7.96600000  *   9.67300000  *   0.18600000  *
   450       H(ATOM    450  HE  ARG A  17)    9.75700000  *   8.04800000  *  -0.88400000  *
   451       H(ATOM    451 1HH1 ARG A  17)    8.89200000  *  11.00300000  *  -3.71900000  *
   452       H(ATOM    452 2HH1 ARG A  17)    7.64200000  *  10.46900000  *  -2.59100000  *
   453       H(ATOM    453  HH2 ARG A  17)   10.98400000  *  10.13400000  *  -3.64100000  *
   454       H(ATOM    454  H   LEU A  18)    4.68600000  *   4.09200000  *  -1.35700000  *
   455       H(ATOM    455  HA  LEU A  18)    5.99000000  *   3.14200000  *  -3.57000000  *
   456       H(ATOM    456 1HB  LEU A  18)    3.26900000  *   2.40500000  *  -2.48100000  *
   457       H(ATOM    457 2HB  LEU A  18)    3.98500000  *   1.53800000  *  -3.86800000  *
   458       H(ATOM    458  HG  LEU A  18)    5.24700000  *   1.75400000  *  -1.13900000  *
   459       H(ATOM    459 1HD1 LEU A  18)    3.08700000  *   0.50300000  *  -1.16800000  *
   460       H(ATOM    460 2HD1 LEU A  18)    3.70700000  *  -0.50000000  *  -2.50100000  *
   461       H(ATOM    461 3HD1 LEU A  18)    4.47400000  *  -0.57900000  *  -0.89700000  *
   462       H(ATOM    462 1HD2 LEU A  18)    6.84800000  *   1.38400000  *  -2.92100000  *
   463       H(ATOM    463 2HD2 LEU A  18)    6.65100000  *  -0.06800000  *  -1.91100000  *
   464       H(ATOM    464 3HD2 LEU A  18)    5.88400000  *   0.01100000  *  -3.51600000  *
   465       H(ATOM    465  HA  PRO A  19)    2.71700000  *   4.61000000  *  -6.60600000  *
   466       H(ATOM    466 1HB  PRO A  19)    0.49700000  *   5.00500000  *  -5.71900000  *
   467       H(ATOM    467 2HB  PRO A  19)    0.96200000  *   6.72200000  *  -5.86600000  *
   468       H(ATOM    468 1HG  PRO A  19)    0.26700000  *   5.64500000  *  -3.48500000  *
   469       H(ATOM    469 2HG  PRO A  19)    1.55200000  *   6.87900000  *  -3.59600000  *
   470       H(ATOM    470 1HD  PRO A  19)    2.73500000  *   5.24300000  *  -2.53400000  *
   471       H(ATOM    471 2HD  PRO A  19)    1.74700000  *   3.92800000  *  -3.22800000  *
   472       H(ATOM    472  H   GLY A  20)    4.64500000  *   6.57900000  *  -4.67000000  *
   473       H(ATOM    473 1HA  GLY A  20)    5.08400000  *   8.28100000  *  -7.02900000  *
   474       H(ATOM    474 2HA  GLY A  20)    6.26800000  *   7.89400000  *  -5.75100000  *
   475       H(ATOM    475  H   THR A  21)    3.66500000  *   8.50600000  *  -3.95800000  *
   476       H(ATOM    476  HA  THR A  21)    3.04700000  *  11.14600000  *  -4.13000000  *
   477       H(ATOM    477  HB  THR A  21)    3.64000000  *   9.64400000  *  -1.49700000  *
   478       H(ATOM    478  HG1 THR A  21)    2.24600000  *   8.29200000  *  -3.03800000  *
   479       H(ATOM    479 1HG2 THR A  21)    3.04000000  *  11.99900000  *  -1.21600000  *
   480       H(ATOM    480 2HG2 THR A  21)    1.54300000  *  11.71300000  *  -2.13500000  *
   481       H(ATOM    481 3HG2 THR A  21)    1.80200000  *  10.89200000  *  -0.57700000  *
   482       H(ATOM    482  HA  PRO A  22)    6.96300000  *  13.23400000  *  -3.14800000  *
   483       H(ATOM    483 1HB  PRO A  22)    4.98100000  *  15.20700000  *  -1.93500000  *
   484       H(ATOM    484 2HB  PRO A  22)    6.38200000  *  15.55300000  *  -2.98700000  *
   485       H(ATOM    485 1HG  PRO A  22)    3.93100000  *  15.69500000  *  -4.02900000  *
   486       H(ATOM    486 2HG  PRO A  22)    5.22900000  *  14.89500000  *  -4.95800000  *
   487       H(ATOM    487 1HD  PRO A  22)    2.98100000  *  13.64600000  *  -3.32500000  *
   488       H(ATOM    488 2HD  PRO A  22)    3.67800000  *  13.08200000  *  -4.86900000  *
   489       H(ATOM    489  H   GLU A  23)    8.36400000  *  13.35200000  *  -1.57300000  *
   490       H(ATOM    490  HA  GLU A  23)    7.74400000  *  11.97700000  *   0.77500000  *
   491       H(ATOM    491 1HB  GLU A  23)    9.86000000  *  13.18000000  *   1.76200000  *
   492       H(ATOM    492 2HB  GLU A  23)    9.91900000  *  14.08900000  *   0.22700000  *
   493       H(ATOM    493 1HG  GLU A  23)    9.97700000  *  11.07400000  *   0.40800000  *
   494       H(ATOM    494 2HG  GLU A  23)   10.28500000  *  12.09300000  *  -1.02500000  *
   495       H(ATOM    495  HE2 GLU A  23)   13.48400000  *  11.05100000  *   0.52900000  *
   496       H(ATOM    496  H   ALA A  24)    7.39100000  *  15.45600000  *   0.11100000  *
   497       H(ATOM    497  HA  ALA A  24)    7.25000000  *  16.13700000  *   2.83900000  *
   498       H(ATOM    498 1HB  ALA A  24)    7.64400000  *  17.83900000  *   1.06800000  *
   499       H(ATOM    499 2HB  ALA A  24)    5.96700000  *  17.64100000  *   0.50600000  *
   500       H(ATOM    500 3HB  ALA A  24)    6.29100000  *  18.31700000  *   2.12000000  *
   501       H(ATOM    501  H   LEU A  25)    4.71200000  *  15.18700000  *   0.49700000  *
   502       H(ATOM    502  HA  LEU A  25)    2.60800000  *  15.57300000  *   2.42300000  *
   503       H(ATOM    503 1HB  LEU A  25)    2.76500000  *  13.99500000  *  -0.19900000  *
   504       H(ATOM    504 2HB  LEU A  25)    1.27300000  *  14.04300000  *   0.77900000  *
   505       H(ATOM    505  HG  LEU A  25)    2.69200000  *  16.60500000  *  -0.19800000  *
   506       H(ATOM    506 1HD1 LEU A  25)    1.98800000  *  15.30000000  *  -2.15400000  *
   507       H(ATOM    507 2HD1 LEU A  25)    0.39200000  *  15.01500000  *  -1.41900000  *
   508       H(ATOM    508 3HD1 LEU A  25)    0.86300000  *  16.65900000  *  -1.91600000  *
   509       H(ATOM    509 1HD2 LEU A  25)    0.98200000  *  16.77400000  *   1.77000000  *
   510       H(ATOM    510 2HD2 LEU A  25)    0.27300000  *  17.49900000  *   0.30700000  *
   511       H(ATOM    511 3HD2 LEU A  25)   -0.19800000  *  15.85600000  *   0.80400000  *
   512       H(ATOM    512  H   CYS A  26)    4.59500000  *  12.75900000  *   1.49800000  *
   513       H(ATOM    513  HA  CYS A  26)    3.09500000  *  11.05500000  *   3.20700000  *
   514       H(ATOM    514 1HB  CYS A  26)    5.98600000  *  10.83000000  *   2.31000000  *
   515       H(ATOM    515 2HB  CYS A  26)    5.15500000  *   9.56300000  *   3.25400000  *
   516       H(ATOM    516  H   ALA A  27)    5.71400000  *  13.33100000  *   3.87800000  *
   517       H(ATOM    517  HA  ALA A  27)    6.25300000  *  12.49500000  *   6.55700000  *
   518       H(ATOM    518 1HB  ALA A  27)    7.69400000  *  14.04000000  *   5.22200000  *
   519       H(ATOM    519 2HB  ALA A  27)    6.43600000  *  15.29300000  *   5.34900000  *
   520       H(ATOM    520 3HB  ALA A  27)    7.27400000  *  14.72100000  *   6.81200000  *
   521       H(ATOM    521  H   THR A  28)    4.01900000  *  15.11400000  *   5.41900000  *
   522       H(ATOM    522  HA  THR A  28)    3.19700000  *  15.38200000  *   8.09900000  *
   523       H(ATOM    523  HB  THR A  28)    1.08200000  *  16.68000000  *   7.08100000  *
   524       H(ATOM    524  HG1 THR A  28)    1.11100000  *  15.33800000  *   4.98900000  *
   525       H(ATOM    525 1HG2 THR A  28)    3.10800000  *  17.85300000  *   7.71300000  *
   526       H(ATOM    526 2HG2 THR A  28)    3.80400000  *  17.48900000  *   6.11600000  *
   527       H(ATOM    527 3HG2 THR A  28)    2.35000000  *  18.50800000  *   6.24100000  *
   528       H(ATOM    528  H   TYR A  29)    2.16900000  *  13.12600000  *   5.62300000  *
   529       H(ATOM    529  HA  TYR A  29)   -0.22700000  *  12.51200000  *   6.98600000  *
   530       H(ATOM    530 1HB  TYR A  29)    1.58600000  *  11.21800000  *   4.90100000  *
   531       H(ATOM    531 2HB  TYR A  29)   -0.06200000  *  11.86400000  *   4.67000000  *
   532       H(ATOM    532  HD1 TYR A  29)   -2.00300000  *  10.38800000  *   5.71900000  *
   533       H(ATOM    533  HD2 TYR A  29)    1.88200000  *   8.94700000  *   4.67400000  *
   534       H(ATOM    534  HE1 TYR A  29)   -2.87400000  *   8.06300000  *   5.72600000  *
   535       H(ATOM    535  HE2 TYR A  29)    1.04600000  *   6.59200000  *   4.71500000  *
   536       H(ATOM    536  HH  TYR A  29)   -2.33300000  *   5.71600000  *   5.44900000  *
   537       H(ATOM    537  H   THR A  30)    3.07300000  *  11.41700000  *   7.45300000  *
   538       H(ATOM    538  HA  THR A  30)    1.96400000  *   9.41000000  *   9.18400000  *
   539       H(ATOM    539  HB  THR A  30)    4.46800000  *   8.31200000  *   8.95400000  *
   540       H(ATOM    540  HG1 THR A  30)    5.52400000  *  10.46600000  *   8.52400000  *
   541       H(ATOM    541 1HG2 THR A  30)    2.68500000  *   7.58400000  *   7.40900000  *
   542       H(ATOM    542 2HG2 THR A  30)    3.11500000  *   8.92700000  *   6.32300000  *
   543       H(ATOM    543 3HG2 THR A  30)    4.29500000  *   7.63700000  *   6.65200000  *
   544       H(ATOM    544  H   GLY A  31)    3.61400000  *  12.27900000  *   9.47700000  *
   545       H(ATOM    545 1HA  GLY A  31)    4.48200000  *  11.66000000  *  12.22000000  *
   546       H(ATOM    546 2HA  GLY A  31)    4.43300000  *  13.26600000  *  11.44200000  *
   547       H(ATOM    547  H   CYS A  32)    5.99900000  *  10.96600000  *   9.41800000  *
   548       H(ATOM    548  HA  CYS A  32)    8.66100000  *  11.30500000  *  10.41600000  *
   549       H(ATOM    549 1HB  CYS A  32)    7.77400000  *  10.88300000  *   7.57300000  *
   550       H(ATOM    550 2HB  CYS A  32)    9.42500000  *  10.67300000  *   8.22100000  *
   551       H(ATOM    551  H   ILE A  33)   10.35700000  *  12.59200000  *   9.04200000  *
   552       H(ATOM    552  HA  ILE A  33)    9.27800000  *  15.18500000  *   8.32000000  *
   553       H(ATOM    553  HB  ILE A  33)   11.06500000  *  16.35300000  *   9.65800000  *
   554       H(ATOM    554 1HG1 ILE A  33)   12.68200000  *  14.49800000  *   9.65500000  *
   555       H(ATOM    555 2HG1 ILE A  33)   11.66800000  *  13.66800000  *  10.86700000  *
   556       H(ATOM    556 1HG2 ILE A  33)    8.78500000  *  15.97200000  *  10.54300000  *
   557       H(ATOM    557 2HG2 ILE A  33)    9.35700000  *  14.46700000  *  11.30200000  *
   558       H(ATOM    558 3HG2 ILE A  33)   10.02200000  *  16.03400000  *  11.82100000  *
   559       H(ATOM    559 1HD1 ILE A  33)   13.53200000  *  14.86600000  *  11.93300000  *
   560       H(ATOM    560 2HD1 ILE A  33)   12.97500000  *  16.38900000  *  11.20000000  *
   561       H(ATOM    561 3HD1 ILE A  33)   11.96400000  *  15.56100000  *  12.40800000  *
   562       H(ATOM    562  H   ILE A  34)   10.85500000  *  16.45300000  *   7.08600000  *
   563       H(ATOM    563  HA  ILE A  34)   12.85400000  *  14.80400000  *   5.70900000  *
   564       H(ATOM    564  HB  ILE A  34)   11.52300000  *  17.33200000  *   4.71000000  *
   565       H(ATOM    565 1HG1 ILE A  34)   11.29700000  *  14.49900000  *   3.69300000  *
   566       H(ATOM    566 2HG1 ILE A  34)   10.11200000  *  15.27500000  *   4.77900000  *
   567       H(ATOM    567 1HG2 ILE A  34)   13.88300000  *  17.12200000  *   4.00900000  *
   568       H(ATOM    568 2HG2 ILE A  34)   13.54100000  *  15.49100000  *   3.38300000  *
   569       H(ATOM    569 3HG2 ILE A  34)   12.75700000  *  16.91000000  *   2.64700000  *
   570       H(ATOM    570 1HD1 ILE A  34)    9.42000000  *  15.50300000  *   2.39400000  *
   571       H(ATOM    571 2HD1 ILE A  34)    9.77900000  *  17.09100000  *   3.11400000  *
   572       H(ATOM    572 3HD1 ILE A  34)   10.96000000  *  16.31700000  *   2.03000000  *
   573       H(ATOM    573  H   ILE A  35)   15.02500000  *  15.52600000  *   6.10700000  *
   574       H(ATOM    574  HA  ILE A  35)   15.26500000  *  18.29600000  *   7.01300000  *
   575       H(ATOM    575  HB  ILE A  35)   17.34900000  *  17.54900000  *   8.43000000  *
   576       H(ATOM    576 1HG1 ILE A  35)   16.43800000  *  14.76900000  *   7.85700000  *
   577       H(ATOM    577 2HG1 ILE A  35)   17.81500000  *  15.57600000  *   7.05700000  *
   578       H(ATOM    578 1HG2 ILE A  35)   15.09000000  *  17.87900000  *   9.40500000  *
   579       H(ATOM    579 2HG2 ILE A  35)   14.75500000  *  16.15300000  *   9.12900000  *
   580       H(ATOM    580 3HG2 ILE A  35)   16.05600000  *  16.64000000  *  10.24200000  *
   581       H(ATOM    581 1HD1 ILE A  35)   18.56600000  *  14.17500000  *   8.92800000  *
   582       H(ATOM    582 2HD1 ILE A  35)   18.89800000  *  15.89500000  *   9.24700000  *
   583       H(ATOM    583 3HD1 ILE A  35)   17.52500000  *  15.09000000  *  10.04400000  *
   584       H(ATOM    584  HA  PRO A  36)   18.17300000  *  18.42700000  *   3.68900000  *
   585       H(ATOM    585 1HB  PRO A  36)   18.15000000  *  20.79900000  *   3.83600000  *
   586       H(ATOM    586 2HB  PRO A  36)   19.79900000  *  20.57800000  *   4.48400000  *
   587       H(ATOM    587 1HG  PRO A  36)   19.15500000  *  20.91900000  *   6.61600000  *
   588       H(ATOM    588 2HG  PRO A  36)   17.87500000  *  21.86200000  *   5.80300000  *
   589       H(ATOM    589 1HD  PRO A  36)   17.36800000  *  19.73400000  *   7.52300000  *
   590       H(ATOM    590 2HD  PRO A  36)   16.25000000  *  20.26600000  *   6.23700000  *
   591       H(ATOM    591  H   GLY A  37)   19.46500000  *  18.06700000  *   6.83100000  *
   592       H(ATOM    592 1HA  GLY A  37)   21.55500000  *  17.23300000  *   7.51600000  *
   593       H(ATOM    593 2HA  GLY A  37)   22.11300000  *  17.24700000  *   5.82100000  *
   594       H(ATOM    594  H   ALA A  38)   22.70100000  *  15.10300000  *   7.44300000  *
   595       H(ATOM    595  HA  ALA A  38)   20.95800000  *  13.13000000  *   6.31400000  *
   596       H(ATOM    596 1HB  ALA A  38)   23.22300000  *  13.20600000  *   5.18300000  *
   597       H(ATOM    597 2HB  ALA A  38)   24.01100000  *  12.92900000  *   6.75400000  *
   598       H(ATOM    598 3HB  ALA A  38)   23.01600000  *  11.64900000  *   6.02000000  *
   599       H(ATOM    599  H   THR A  39)   21.63500000  *  14.39800000  *   9.15400000  *
   600       H(ATOM    600  HA  THR A  39)   21.92500000  *  11.80600000  *  10.47800000  *
   601       H(ATOM    601  HB  THR A  39)   22.74900000  *  14.62800000  *  11.66600000  *
   602       H(ATOM    602  HG1 THR A  39)   24.19000000  *  13.97500000  *   9.87200000  *
   603       H(ATOM    603 1HG2 THR A  39)   22.27500000  *  12.87800000  *  13.40300000  *
   604       H(ATOM    604 2HG2 THR A  39)   23.53000000  *  11.86300000  *  12.65200000  *
   605       H(ATOM    605 3HG2 THR A  39)   23.96700000  *  13.42900000  *  13.37600000  *
   606       H(ATOM    606  H   CYS A  40)   20.02300000  *  11.13600000  *  11.19200000  *
   607       H(ATOM    607  HA  CYS A  40)   17.94300000  *  13.06100000  *  11.86600000  *
   608       H(ATOM    608 1HB  CYS A  40)   18.10600000  *  10.02600000  *  12.10400000  *
   609       H(ATOM    609 2HB  CYS A  40)   16.63500000  *  10.98000000  *  12.44000000  *
   610       H(ATOM    610  HA  PRO A  41)   18.93700000  *  13.23000000  *  16.19600000  *
   611       H(ATOM    611 1HB  PRO A  41)   16.83100000  *  14.52300000  *  17.13700000  *
   612       H(ATOM    612 2HB  PRO A  41)   17.88900000  *  15.33600000  *  15.95200000  *
   613       H(ATOM    613 1HG  PRO A  41)   15.62000000  *  15.43800000  *  14.84000000  *
   614       H(ATOM    614 2HG  PRO A  41)   15.26100000  *  13.75500000  *  15.31500000  *
   615       H(ATOM    615 1HD  PRO A  41)   16.05400000  *  13.43600000  *  13.16700000  *
   616       H(ATOM    616 2HD  PRO A  41)   17.19600000  *  14.80400000  *  13.27200000  *
   617       H(ATOM    617  H   GLY A  42)   18.09500000  *  12.72500000  *  18.34400000  *
   618       H(ATOM    618 1HA  GLY A  42)   17.64700000  *  10.95900000  *  19.68500000  *
   619       H(ATOM    619 2HA  GLY A  42)   17.65200000  *   9.93800000  *  18.22100000  *
   620       H(ATOM    620  H   ASP A  43)   15.35400000  *  12.56600000  *  18.43300000  *
   621       H(ATOM    621  HA  ASP A  43)   13.36300000  *  10.68000000  *  19.39500000  *
   622       H(ATOM    622 1HB  ASP A  43)   13.09400000  *  12.61600000  *  20.49800000  *
   623       H(ATOM    623 2HB  ASP A  43)   11.70300000  *  12.47600000  *  19.38800000  *
   624       H(ATOM    624  H   TYR A  44)   14.63900000  *  11.38500000  *  16.42500000  *
   625       H(ATOM    625  HA  TYR A  44)   12.24200000  *  10.32900000  *  15.11200000  *
   626       H(ATOM    626 1HB  TYR A  44)   12.97500000  *  11.44900000  *  12.96400000  *
   627       H(ATOM    627 2HB  TYR A  44)   14.04400000  *  12.46100000  *  13.97500000  *
   628       H(ATOM    628  HD1 TYR A  44)   12.99600000  *  14.00100000  *  15.71000000  *
   629       H(ATOM    629  HD2 TYR A  44)   10.64600000  *  11.77500000  *  12.89000000  *
   630       H(ATOM    630  HE1 TYR A  44)   11.08100000  *  15.49100000  *  16.15500000  *
   631       H(ATOM    631  HE2 TYR A  44)    8.66900000  *  13.21600000  *  13.42800000  *
   632       H(ATOM    632  HH  TYR A  44)    8.76900000  *  15.94000000  *  15.77100000  *
   633       H(ATOM    633  H   ALA A  45)   13.62900000  *   8.46500000  *  16.02700000  *
   634       H(ATOM    634  HA  ALA A  45)   16.23800000  *   8.18100000  *  14.80300000  *
   635       H(ATOM    635 1HB  ALA A  45)   15.77200000  *   7.81000000  *  17.32000000  *
   636       H(ATOM    636 2HB  ALA A  45)   14.71200000  *   6.44800000  *  16.88600000  *
   637       H(ATOM    637 3HB  ALA A  45)   16.46300000  *   6.34500000  *  16.58200000  *
   638       H(ATOM    638  H   ASN A  46)   13.25300000  *   7.16600000  *  13.85400000  *
   639       H(ATOM    639  HA  ASN A  46)   14.33900000  *   4.63200000  *  12.78600000  *
   640       H(ATOM    640  HXT ASN A  46)   13.46200000  *   7.06700000  *  10.04200000  *
   641       H(ATOM    641 1HB  ASN A  46)   11.96600000  *   3.81600000  *  12.74700000  *
   642       H(ATOM    642 2HB  ASN A  46)   11.44100000  *   5.37800000  *  13.43300000  *
   643       H(ATOM    643 1HD2 ASN A  46)   12.08000000  *   5.59600000  *  15.79600000  *
   644       H(ATOM    644 2HD2 ASN A  46)   10.92900000  *   4.42000000  *  15.63500000  *
   645       H(HETATM  645 1H1  EOH A  66)   15.40900000  *  -1.06000000  *  13.45200000  *
   646       H(HETATM  646 2H1  EOH A  66)   14.35600000  *   0.16300000  *  14.20200000  *
   647       H(HETATM  647 3H1  EOH A  66)   14.05100000  *  -0.37000000  *  12.53100000  *
   648       H(HETATM  648 1H2  EOH A  66)   16.47100000  *   1.10900000  *  13.51600000  *
   649       H(HETATM  649 2H2  EOH A  66)   16.16500000  *   0.57400000  *  11.84100000  *
   650       H(HETATM  650  H   EOH A  66)   14.08500000  *   2.06100000  *  12.73200000  *


 General Reference for PM7:
 "Optimization of Parameters for Semiempirical Methods VI: More Modifications to the 
 NDDO Approximations and Re-optimization of Parameters", J. J. P. Stewart, J. Mol. Mod., 1:32, 19 (2013)
 https://link.springer.com/article/10.1007/s00894-012-1667-x

           Empirical Formula: C204 H320 N55 O65 S6  =   650 atoms


                RESIDUE SEQUENCE IN PROTEIN Chain: A

             1     2     3     4     5     6     7     8     9    10
        0   THR   THR   CYS   CYS   PRO   SER   ILE   VAL   ALA   ARG   
       10   SER   ASN   PHE   ASN   VAL   CYS   ARG   LEU   PRO   GLY   
       20   THR   PRO   GLU   ALA   LEU   CYS   ALA   THR   TYR   THR   
       30   GLY   CYS   ILE   ILE   ILE   PRO   GLY   ALA   THR   CYS   
       40   PRO   GLY   ASP-  TYR   ALA   ASN   

                RESIDUE SEQUENCE IN PROTEIN Chain: A

        0  TTCCPSIVAR SNFNVCRLPG TPEALCATYT GCIIIPGATC PGDYAN

   TOPOGRAPHY OF SYSTEM

   ATOM No.                  LABEL                 Atoms connected to this atom
      1          N (ATOM      1  N   THR A   1)       2    331    332
      2          C (ATOM      2  CA  THR A   1)       1      3      5    333
      3          C (ATOM      3  C   THR A   1)       4      8      2
      4          O (ATOM      4  O   THR A   1)       3
      5          C (ATOM      5  CB  THR A   1)       6      2      7    334
      6          O (ATOM      6  OG1 THR A   1)       5    335
      7          C (ATOM      7  CG2 THR A   1)       5    336    337    338
      8          N (ATOM      8  N   THR A   2)       3      9    339
      9          C (ATOM      9  CA  THR A   2)       8     10     12    340
     10          C (ATOM     10  C   THR A   2)      11     15      9
     11          O (ATOM     11  O   THR A   2)      10
     12          C (ATOM     12  CB  THR A   2)      13      9     14    341
     13          O (ATOM     13  OG1 THR A   2)      12    342
     14          C (ATOM     14  CG2 THR A   2)      12    343    344    345
     15          N (ATOM     15  N   CYS A   3)      10     16    346
     16          C (ATOM     16  CA  CYS A   3)      15     17     19    347
     17          C (ATOM     17  C   CYS A   3)      18     21     16
     18          O (ATOM     18  O   CYS A   3)      17
     19          C (ATOM     19  CB  CYS A   3)      20     16    348    349
     20          S (ATOM     20  SG  CYS A   3)     282     19
     21          N (ATOM     21  N   CYS A   4)      17     22    350
     22          C (ATOM     22  CA  CYS A   4)      21     23     25    351
     23          C (ATOM     23  C   CYS A   4)      24     27     22
     24          O (ATOM     24  O   CYS A   4)      23
     25          C (ATOM     25  CB  CYS A   4)      26     22    352    353
     26          S (ATOM     26  SG  CYS A   4)     229     25
     27          N (ATOM     27  N   PRO A   5)      23     28     33
     28          C (ATOM     28  CA  PRO A   5)      27     29     31    354
     29          C (ATOM     29  C   PRO A   5)      30     34     28
     30          O (ATOM     30  O   PRO A   5)      29
     31          C (ATOM     31  CB  PRO A   5)      28     32    355    356
     32          C (ATOM     32  CG  PRO A   5)      31     33    357    358
     33          C (ATOM     33  CD  PRO A   5)      27     32    359    360
     34          N (ATOM     34  N   SER A   6)      29     35    361
     35          C (ATOM     35  CA  SER A   6)      34     36     38    362
     36          C (ATOM     36  C   SER A   6)      37     40     35
     37          O (ATOM     37  O   SER A   6)      36
     38          C (ATOM     38  CB  SER A   6)      39     35    363    364
     39          O (ATOM     39  OG  SER A   6)      38    365
     40          N (ATOM     40  N   ILE A   7)      36     41    366
     41          C (ATOM     41  CA  ILE A   7)      40     42     44    367
     42          C (ATOM     42  C   ILE A   7)      43     48     41
     43          O (ATOM     43  O   ILE A   7)      42
     44          C (ATOM     44  CB  ILE A   7)      41     45     46    368
     45          C (ATOM     45  CG1 ILE A   7)      44     47    369    370
     46          C (ATOM     46  CG2 ILE A   7)      44    371    372    373
     47          C (ATOM     47  CD1 ILE A   7)      45    374    375    376
     48          N (ATOM     48  N   VAL A   8)      42     49    377
     49          C (ATOM     49  CA  VAL A   8)      48     50     52    378
     50          C (ATOM     50  C   VAL A   8)      51     55     49
     51          O (ATOM     51  O   VAL A   8)      50
     52          C (ATOM     52  CB  VAL A   8)      49     53     54    379
     53          C (ATOM     53  CG1 VAL A   8)      52    380    381    382
     54          C (ATOM     54  CG2 VAL A   8)      52    383    384    385
     55          N (ATOM     55  N   ALA A   9)      50     56    386
     56          C (ATOM     56  CA  ALA A   9)      55     57     59    387
     57          C (ATOM     57  C   ALA A   9)      58     60     56
     58          O (ATOM     58  O   ALA A   9)      57
     59          C (ATOM     59  CB  ALA A   9)      56    388    389    390
     60          N (ATOM     60  N   ARG A  10)      57     61    391
     61          C (ATOM     61  CA  ARG A  10)      60     62     64    392
     62          C (ATOM     62  C   ARG A  10)      63     71     61
     63          O (ATOM     63  O   ARG A  10)      62
     64          C (ATOM     64  CB  ARG A  10)      61     65    393    394
     65          C (ATOM     65  CG  ARG A  10)      64     66    395    396
     66          C (ATOM     66  CD  ARG A  10)      67     65    397    398
     67          N (ATOM     67  NE  ARG A  10)      66     68    399
     68          C (ATOM     68  CZ  ARG A  10)      67     69     70
     69          N (ATOM     69  NH1 ARG A  10)      68    400    401
     70          N (ATOM     70  NH2 ARG A  10)      68    402
     71          N (ATOM     71  N   SER A  11)      62     72    403
     72          C (ATOM     72  CA  SER A  11)      71     73     75    404
     73          C (ATOM     73  C   SER A  11)      74     77     72
     74          O (ATOM     74  O   SER A  11)      73
     75          C (ATOM     75  CB  SER A  11)      76     72    405    406
     76          O (ATOM     76  OG  SER A  11)      75    407
     77          N (ATOM     77  N   ASN A  12)      73     78    408
     78          C (ATOM     78  CA  ASN A  12)      77     79     81    409
     79          C (ATOM     79  C   ASN A  12)      80     85     78
     80          O (ATOM     80  O   ASN A  12)      79
     81          C (ATOM     81  CB  ASN A  12)      78     82    410    411
     82          C (ATOM     82  CG  ASN A  12)      83     84     81
     83          O (ATOM     83  OD1 ASN A  12)      82
     84          N (ATOM     84  ND2 ASN A  12)      82    412    413
     85          N (ATOM     85  N   PHE A  13)      79     86    414
     86          C (ATOM     86  CA  PHE A  13)      85     87     89    415
     87          C (ATOM     87  C   PHE A  13)      88     96     86
     88          O (ATOM     88  O   PHE A  13)      87
     89          C (ATOM     89  CB  PHE A  13)      86     90    416    417
     90          C (ATOM     90  CG  PHE A  13)      89     91     92
     91          C (ATOM     91  CD1 PHE A  13)      90     93    418
     92          C (ATOM     92  CD2 PHE A  13)      90     94    419
     93          C (ATOM     93  CE1 PHE A  13)      91     95    420
     94          C (ATOM     94  CE2 PHE A  13)      92     95    421
     95          C (ATOM     95  CZ  PHE A  13)      93     94    422
     96          N (ATOM     96  N   ASN A  14)      87     97    423
     97          C (ATOM     97  CA  ASN A  14)      96     98    100    424
     98          C (ATOM     98  C   ASN A  14)      99    104     97
     99          O (ATOM     99  O   ASN A  14)      98
    100          C (ATOM    100  CB  ASN A  14)      97    101    425    426
    101          C (ATOM    101  CG  ASN A  14)     102    103    100
    102          O (ATOM    102  OD1 ASN A  14)     101
    103          N (ATOM    103  ND2 ASN A  14)     101    427    428
    104          N (ATOM    104  N   VAL A  15)      98    105    429
    105          C (ATOM    105  CA  VAL A  15)     104    106    108    430
    106          C (ATOM    106  C   VAL A  15)     107    111    105
    107          O (ATOM    107  O   VAL A  15)     106
    108          C (ATOM    108  CB  VAL A  15)     105    109    110    431
    109          C (ATOM    109  CG1 VAL A  15)     108    432    433    434
    110          C (ATOM    110  CG2 VAL A  15)     108    435    436    437
    111          N (ATOM    111  N   CYS A  16)     106    112    438
    112          C (ATOM    112  CA  CYS A  16)     111    113    115    439
    113          C (ATOM    113  C   CYS A  16)     114    117    112
    114          O (ATOM    114  O   CYS A  16)     113
    115          C (ATOM    115  CB  CYS A  16)     116    112    440    441
    116          S (ATOM    116  SG  CYS A  16)     188    115
    117          N (ATOM    117  N   ARG A  17)     113    118    442
    118          C (ATOM    118  CA  ARG A  17)     117    119    121    443
    119          C (ATOM    119  C   ARG A  17)     120    128    118
    120          O (ATOM    120  O   ARG A  17)     119
    121          C (ATOM    121  CB  ARG A  17)     118    122    444    445
    122          C (ATOM    122  CG  ARG A  17)     121    123    446    447
    123          C (ATOM    123  CD  ARG A  17)     124    122    448    449
    124          N (ATOM    124  NE  ARG A  17)     123    125    450
    125          C (ATOM    125  CZ  ARG A  17)     124    126    127
    126          N (ATOM    126  NH1 ARG A  17)     125    451    452
    127          N (ATOM    127  NH2 ARG A  17)     125    453
    128          N (ATOM    128  N   LEU A  18)     119    129    454
    129          C (ATOM    129  CA  LEU A  18)     128    130    132    455
    130          C (ATOM    130  C   LEU A  18)     131    136    129
    131          O (ATOM    131  O   LEU A  18)     130
    132          C (ATOM    132  CB  LEU A  18)     129    133    456    457
    133          C (ATOM    133  CG  LEU A  18)     132    134    135    458
    134          C (ATOM    134  CD1 LEU A  18)     133    459    460    461
    135          C (ATOM    135  CD2 LEU A  18)     133    462    463    464
    136          N (ATOM    136  N   PRO A  19)     130    137    142
    137          C (ATOM    137  CA  PRO A  19)     136    138    140    465
    138          C (ATOM    138  C   PRO A  19)     139    143    137
    139          O (ATOM    139  O   PRO A  19)     138
    140          C (ATOM    140  CB  PRO A  19)     137    141    466    467
    141          C (ATOM    141  CG  PRO A  19)     140    142    468    469
    142          C (ATOM    142  CD  PRO A  19)     136    141    470    471
    143          N (ATOM    143  N   GLY A  20)     138    144    472
    144          C (ATOM    144  CA  GLY A  20)     143    145    473    474
    145          C (ATOM    145  C   GLY A  20)     146    147    144
    146          O (ATOM    146  O   GLY A  20)     145
    147          N (ATOM    147  N   THR A  21)     145    148    475
    148          C (ATOM    148  CA  THR A  21)     147    149    151    476
    149          C (ATOM    149  C   THR A  21)     150    154    148
    150          O (ATOM    150  O   THR A  21)     149
    151          C (ATOM    151  CB  THR A  21)     152    148    153    477
    152          O (ATOM    152  OG1 THR A  21)     151    478
    153          C (ATOM    153  CG2 THR A  21)     151    479    480    481
    154          N (ATOM    154  N   PRO A  22)     149    155    160
    155          C (ATOM    155  CA  PRO A  22)     154    156    158    482
    156          C (ATOM    156  C   PRO A  22)     157    161    155
    157          O (ATOM    157  O   PRO A  22)     156
    158          C (ATOM    158  CB  PRO A  22)     155    159    483    484
    159          C (ATOM    159  CG  PRO A  22)     158    160    485    486
    160          C (ATOM    160  CD  PRO A  22)     154    159    487    488
    161          N (ATOM    161  N   GLU A  23)     156    162    489
    162          C (ATOM    162  CA  GLU A  23)     161    163    165    490
    163          C (ATOM    163  C   GLU A  23)     164    170    162
    164          O (ATOM    164  O   GLU A  23)     163
    165          C (ATOM    165  CB  GLU A  23)     162    166    491    492
    166          C (ATOM    166  CG  GLU A  23)     165    167    493    494
    167          C (ATOM    167  CD  GLU A  23)     168    169    166
    168          O (ATOM    168  OE1 GLU A  23)     167
    169          O (ATOM    169  OE2 GLU A  23)     167    495
    170          N (ATOM    170  N   ALA A  24)     163    171    496
    171          C (ATOM    171  CA  ALA A  24)     170    172    174    497
    172          C (ATOM    172  C   ALA A  24)     173    175    171
    173          O (ATOM    173  O   ALA A  24)     172
    174          C (ATOM    174  CB  ALA A  24)     171    498    499    500
    175          N (ATOM    175  N   LEU A  25)     172    176    501
    176          C (ATOM    176  CA  LEU A  25)     175    177    179    502
    177          C (ATOM    177  C   LEU A  25)     178    183    176
    178          O (ATOM    178  O   LEU A  25)     177
    179          C (ATOM    179  CB  LEU A  25)     176    180    503    504
    180          C (ATOM    180  CG  LEU A  25)     179    181    182    505
    181          C (ATOM    181  CD1 LEU A  25)     180    506    507    508
    182          C (ATOM    182  CD2 LEU A  25)     180    509    510    511
    183          N (ATOM    183  N   CYS A  26)     177    184    512
    184          C (ATOM    184  CA  CYS A  26)     183    185    187    513
    185          C (ATOM    185  C   CYS A  26)     186    189    184
    186          O (ATOM    186  O   CYS A  26)     185
    187          C (ATOM    187  CB  CYS A  26)     188    184    514    515
    188          S (ATOM    188  SG  CYS A  26)     116    187
    189          N (ATOM    189  N   ALA A  27)     185    190    516
    190          C (ATOM    190  CA  ALA A  27)     189    191    193    517
    191          C (ATOM    191  C   ALA A  27)     192    194    190
    192          O (ATOM    192  O   ALA A  27)     191
    193          C (ATOM    193  CB  ALA A  27)     190    518    519    520
    194          N (ATOM    194  N   THR A  28)     191    195    521
    195          C (ATOM    195  CA  THR A  28)     194    196    198    522
    196          C (ATOM    196  C   THR A  28)     197    201    195
    197          O (ATOM    197  O   THR A  28)     196
    198          C (ATOM    198  CB  THR A  28)     199    195    200    523
    199          O (ATOM    199  OG1 THR A  28)     198    524
    200          C (ATOM    200  CG2 THR A  28)     198    525    526    527
    201          N (ATOM    201  N   TYR A  29)     196    202    528
    202          C (ATOM    202  CA  TYR A  29)     201    203    205    529
    203          C (ATOM    203  C   TYR A  29)     204    213    202
    204          O (ATOM    204  O   TYR A  29)     203
    205          C (ATOM    205  CB  TYR A  29)     202    206    530    531
    206          C (ATOM    206  CG  TYR A  29)     205    207    208
    207          C (ATOM    207  CD1 TYR A  29)     206    209    532
    208          C (ATOM    208  CD2 TYR A  29)     206    210    533
    209          C (ATOM    209  CE1 TYR A  29)     207    211    534
    210          C (ATOM    210  CE2 TYR A  29)     208    211    535
    211          C (ATOM    211  CZ  TYR A  29)     212    209    210
    212          O (ATOM    212  OH  TYR A  29)     211    536
    213          N (ATOM    213  N   THR A  30)     203    214    537
    214          C (ATOM    214  CA  THR A  30)     213    215    217    538
    215          C (ATOM    215  C   THR A  30)     216    220    214
    216          O (ATOM    216  O   THR A  30)     215
    217          C (ATOM    217  CB  THR A  30)     218    214    219    539
    218          O (ATOM    218  OG1 THR A  30)     217    540
    219          C (ATOM    219  CG2 THR A  30)     217    541    542    543
    220          N (ATOM    220  N   GLY A  31)     215    221    544
    221          C (ATOM    221  CA  GLY A  31)     220    222    545    546
    222          C (ATOM    222  C   GLY A  31)     223    224    221
    223          O (ATOM    223  O   GLY A  31)     222
    224          N (ATOM    224  N   CYS A  32)     222    225    547
    225          C (ATOM    225  CA  CYS A  32)     224    226    228    548
    226          C (ATOM    226  C   CYS A  32)     227    230    225
    227          O (ATOM    227  O   CYS A  32)     226
    228          C (ATOM    228  CB  CYS A  32)     229    225    549    550
    229          S (ATOM    229  SG  CYS A  32)      26    228
    230          N (ATOM    230  N   ILE A  33)     226    231    551
    231          C (ATOM    231  CA  ILE A  33)     230    232    234    552
    232          C (ATOM    232  C   ILE A  33)     233    238    231
    233          O (ATOM    233  O   ILE A  33)     232
    234          C (ATOM    234  CB  ILE A  33)     231    235    236    553
    235          C (ATOM    235  CG1 ILE A  33)     234    237    554    555
    236          C (ATOM    236  CG2 ILE A  33)     234    556    557    558
    237          C (ATOM    237  CD1 ILE A  33)     235    559    560    561
    238          N (ATOM    238  N   ILE A  34)     232    239    562
    239          C (ATOM    239  CA  ILE A  34)     238    240    242    563
    240          C (ATOM    240  C   ILE A  34)     241    246    239
    241          O (ATOM    241  O   ILE A  34)     240
    242          C (ATOM    242  CB  ILE A  34)     239    243    244    564
    243          C (ATOM    243  CG1 ILE A  34)     242    245    565    566
    244          C (ATOM    244  CG2 ILE A  34)     242    567    568    569
    245          C (ATOM    245  CD1 ILE A  34)     243    570    571    572
    246          N (ATOM    246  N   ILE A  35)     240    247    573
    247          C (ATOM    247  CA  ILE A  35)     246    248    250    574
[...]
  270  N(ATOM    270  N   THR A  39)   1.54004   1.70919   1.18807   1.11890
  271  C(ATOM    271  CA  THR A  39)   1.09261   1.02774   1.11570   0.84578
  272  C(ATOM    272  C   THR A  39)   1.07515   0.82962   0.79220   0.77612
  273  O(ATOM    273  O   THR A  39)   1.89477   1.79053   1.31947   1.57887
  274  C(ATOM    274  CB  THR A  39)   1.09207   0.76818   1.05303   0.88167
  275  O(ATOM    275  OG1 THR A  39)   1.82767   1.45410   1.87475   1.44475
  276  C(ATOM    276  CG2 THR A  39)   1.05668   1.18766   1.16649   1.05776
  277  N(ATOM    277  N   CYS A  40)   1.54110   1.23462   1.18833   1.54006
  278  C(ATOM    278  CA  CYS A  40)   1.07025   0.85531   1.08616   0.97452
  279  C(ATOM    279  C   CYS A  40)   1.07802   0.76412   0.75870   0.86539
  280  O(ATOM    280  O   CYS A  40)   1.89645   1.44325   1.47211   1.75682
  281  C(ATOM    281  CB  CYS A  40)   1.08692   1.14621   1.08650   1.05330
  282  S(ATOM    282  SG  CYS A  40)   1.91454   1.45910   1.38531   1.05030   0.00608   0.03133   0.05753   0.01065   0.02700
  283  N(ATOM    283  N   PRO A  41)   1.56153   1.35363   1.41984   1.10394
  284  C(ATOM    284  CA  PRO A  41)   1.06351   1.10810   0.99907   0.83319
  285  C(ATOM    285  C   PRO A  41)   1.09157   0.75728   0.83602   0.76545
  286  O(ATOM    286  O   PRO A  41)   1.89680   1.43268   1.49587   1.70589
  287  C(ATOM    287  CB  PRO A  41)   1.06642   1.05908   1.02126   1.12530
  288  C(ATOM    288  CG  PRO A  41)   1.06629   1.05395   1.15812   0.97071
  289  C(ATOM    289  CD  PRO A  41)   1.07089   0.95138   1.00252   1.04646
  290  N(ATOM    290  N   GLY A  42)   1.55086   1.60206   1.27164   1.16357
  291  C(ATOM    291  CA  GLY A  42)   1.07230   1.06044   0.95993   1.04791
  292  C(ATOM    292  C   GLY A  42)   1.08178   0.84247   0.78415   0.73614
  293  O(ATOM    293  O   GLY A  42)   1.88927   1.79967   1.33808   1.54780
  294  N(ATOM    294  N   ASP A  43)   1.56066   1.14636   1.19923   1.66157
  295  C(ATOM    295  CA  ASP A  43)   1.07637   0.77041   1.10117   1.00221
  296  C(ATOM    296  C   ASP A  43)   1.08643   0.80563   0.71518   0.83386
  297  O(ATOM    297  O   ASP A  43)   1.88750   1.23236   1.58711   1.87008
  298  C(ATOM    298  CB  ASP A  43)   1.07278   1.15061   1.09335   1.12235
  299  C(ATOM    299  CG  ASP A  43)   1.05779   0.72461   0.78158   0.69247
  300  O(ATOM    300  OD1 ASP A  43)   1.87480   1.48470   1.88639   1.56734
  301  O(ATOM    301  OD2 ASP A  43)   1.89815   1.54978   1.60539   1.70382
  302  N(ATOM    302  N   TYR A  44)   1.53873   1.22549   1.64777   1.13366
  303  C(ATOM    303  CA  TYR A  44)   1.06889   1.07458   0.98793   0.85761
  304  C(ATOM    304  C   TYR A  44)   1.08425   0.79051   0.78497   0.76601
  305  O(ATOM    305  O   TYR A  44)   1.88604   1.52743   1.81106   1.35005
  306  C(ATOM    306  CB  TYR A  44)   1.05647   1.09541   1.04302   1.07878
  307  C(ATOM    307  CG  TYR A  44)   1.06392   0.96528   1.00565   1.02997
  308  C(ATOM    308  CD1 TYR A  44)   1.08748   1.06960   0.94836   0.96262
  309  C(ATOM    309  CD2 TYR A  44)   1.08615   0.98061   1.02714   1.02435
  310  C(ATOM    310  CE1 TYR A  44)   1.08114   0.99428   1.10064   1.09266
  311  C(ATOM    311  CE2 TYR A  44)   1.07283   1.09116   1.03838   1.07585
  312  C(ATOM    312  CZ  TYR A  44)   1.07184   0.82118   0.86657   0.92783
  313  O(ATOM    313  OH  TYR A  44)   1.82593   1.49590   1.53762   1.68406
  314  N(ATOM    314  N   ALA A  45)   1.55210   1.33561   1.29560   1.39275
  315  C(ATOM    315  CA  ALA A  45)   1.07222   0.97213   0.92223   0.99369
  316  C(ATOM    316  C   ALA A  45)   1.09204   0.75530   0.83310   0.77949
  317  O(ATOM    317  O   ALA A  45)   1.89164   1.47373   1.48816   1.66859
  318  C(ATOM    318  CB  ALA A  45)   1.06014   1.18492   1.17052   1.04038
  319  N(ATOM    319  N   ASN A  46)   1.55600   1.23534   1.30138   1.50342
  320  C(ATOM    320  CA  ASN A  46)   1.06795   1.03573   0.95225   0.88374
  321  C(ATOM    321  C   ASN A  46)   1.11694   0.65928   0.72280   0.85660
  322  O(ATOM    322  OXT ASN A  46)   1.80726   1.71609   1.43861   1.50260
  323  C(ATOM    323  CB  ASN A  46)   1.07648   1.10403   1.15423   1.10588
  324  C(ATOM    324  CG  ASN A  46)   1.07791   0.78535   0.78896   0.84341
  325  O(ATOM    325  OD1 ASN A  46)   1.92511   1.29134   1.29285   1.90350
  326  N(ATOM    326  ND2 ASN A  46)   1.59137   1.21141   1.30019   1.51351
  327  O(ATOM    327  O   ASN A  46)   1.88670   1.53322   1.58131   1.66274
  328  C(HETATM  328  C1  EOH A  66)   1.05137   1.15253   1.13328   1.17473
  329  C(HETATM  329  C2  EOH A  66)   1.06190   0.98355   0.83041   1.10483
  330  O(HETATM  330  O   EOH A  66)   1.85327   1.36760   1.40082   1.90851
  331  H(ATOM    331 1H   THR A   1)   0.76575
  332  H(ATOM    332 2H   THR A   1)   0.72340
  333  H(ATOM    333  HA  THR A   1)   0.86629
  334  H(ATOM    334  HB  THR A   1)   0.85274
  335  H(ATOM    335  HG1 THR A   1)   0.63608
  336  H(ATOM    336 1HG2 THR A   1)   0.82961
  337  H(ATOM    337 2HG2 THR A   1)   0.84628
  338  H(ATOM    338 3HG2 THR A   1)   0.83012
  339  H(ATOM    339  H   THR A   2)   0.66547
  340  H(ATOM    340  HA  THR A   2)   0.78409
  341  H(ATOM    341  HB  THR A   2)   0.87272
  342  H(ATOM    342  HG1 THR A   2)   0.64918
  343  H(ATOM    343 1HG2 THR A   2)   0.83613
  344  H(ATOM    344 2HG2 THR A   2)   0.83881
  345  H(ATOM    345 3HG2 THR A   2)   0.84064
  346  H(ATOM    346  H   CYS A   3)   0.64625
  347  H(ATOM    347  HA  CYS A   3)   0.80307
  348  H(ATOM    348 1HB  CYS A   3)   0.81240
  349  H(ATOM    349 2HB  CYS A   3)   0.80030
  350  H(ATOM    350  H   CYS A   4)   0.65121
  351  H(ATOM    351  HA  CYS A   4)   0.80760
  352  H(ATOM    352 1HB  CYS A   4)   0.81105
  353  H(ATOM    353 2HB  CYS A   4)   0.83519
  354  H(ATOM    354  HA  PRO A   5)   0.78590
  355  H(ATOM    355 1HB  PRO A   5)   0.80287
  356  H(ATOM    356 2HB  PRO A   5)   0.84256
  357  H(ATOM    357 1HG  PRO A   5)   0.82036
  358  H(ATOM    358 2HG  PRO A   5)   0.86585
  359  H(ATOM    359 1HD  PRO A   5)   0.86392
  360  H(ATOM    360 2HD  PRO A   5)   0.81538
  361  H(ATOM    361  H   SER A   6)   0.66593
  362  H(ATOM    362  HA  SER A   6)   0.81747
  363  H(ATOM    363 1HB  SER A   6)   0.88965
  364  H(ATOM    364 2HB  SER A   6)   0.83141
  365  H(ATOM    365  HG  SER A   6)   0.65568
  366  H(ATOM    366  H   ILE A   7)   0.68232
  367  H(ATOM    367  HA  ILE A   7)   0.80298
  368  H(ATOM    368  HB  ILE A   7)   0.87014
  369  H(ATOM    369 1HG1 ILE A   7)   0.86225
  370  H(ATOM    370 2HG1 ILE A   7)   0.84690
  371  H(ATOM    371 1HG2 ILE A   7)   0.85760
  372  H(ATOM    372 2HG2 ILE A   7)   0.83065
  373  H(ATOM    373 3HG2 ILE A   7)   0.84369
  374  H(ATOM    374 1HD1 ILE A   7)   0.83483
  375  H(ATOM    375 2HD1 ILE A   7)   0.85780
  376  H(ATOM    376 3HD1 ILE A   7)   0.85322
  377  H(ATOM    377  H   VAL A   8)   0.67551
  378  H(ATOM    378  HA  VAL A   8)   0.81072
  379  H(ATOM    379  HB  VAL A   8)   0.87755
  380  H(ATOM    380 1HG1 VAL A   8)   0.85220
  381  H(ATOM    381 2HG1 VAL A   8)   0.82108
  382  H(ATOM    382 3HG1 VAL A   8)   0.84436
  383  H(ATOM    383 1HG2 VAL A   8)   0.85942
  384  H(ATOM    384 2HG2 VAL A   8)   0.84420
  385  H(ATOM    385 3HG2 VAL A   8)   0.83578
  386  H(ATOM    386  H   ALA A   9)   0.66073
  387  H(ATOM    387  HA  ALA A   9)   0.82390
  388  H(ATOM    388 1HB  ALA A   9)   0.83095
  389  H(ATOM    389 2HB  ALA A   9)   0.84580
  390  H(ATOM    390 3HB  ALA A   9)   0.80081
  391  H(ATOM    391  H   ARG A  10)   0.66106
  392  H(ATOM    392  HA  ARG A  10)   0.79926
  393  H(ATOM    393 1HB  ARG A  10)   0.84086
  394  H(ATOM    394 2HB  ARG A  10)   0.82169
  395  H(ATOM    395 1HG  ARG A  10)   0.85136
  396  H(ATOM    396 2HG  ARG A  10)   0.83138
  397  H(ATOM    397 1HD  ARG A  10)   0.85072
  398  H(ATOM    398 2HD  ARG A  10)   0.85721
  399  H(ATOM    399  HE  ARG A  10)   0.61059
  400  H(ATOM    400 1HH1 ARG A  10)   0.67465
  401  H(ATOM    401 2HH1 ARG A  10)   0.68449
  402  H(ATOM    402  HH2 ARG A  10)   0.68814
  403  H(ATOM    403  H   SER A  11)   0.64147
  404  H(ATOM    404  HA  SER A  11)   0.81751
  405  H(ATOM    405 1HB  SER A  11)   0.86217
  406  H(ATOM    406 2HB  SER A  11)   0.85768
  407  H(ATOM    407  HG  SER A  11)   0.66373
  408  H(ATOM    408  H   ASN A  12)   0.64684
  409  H(ATOM    409  HA  ASN A  12)   0.79733
  410  H(ATOM    410 1HB  ASN A  12)   0.79634
  411  H(ATOM    411 2HB  ASN A  12)   0.81253
  412  H(ATOM    412 1HD2 ASN A  12)   0.71434
  413  H(ATOM    413 2HD2 ASN A  12)   0.71202
  414  H(ATOM    414  H   PHE A  13)   0.64839
  415  H(ATOM    415  HA  PHE A  13)   0.81953
  416  H(ATOM    416 1HB  PHE A  13)   0.82437
  417  H(ATOM    417 2HB  PHE A  13)   0.80402
  418  H(ATOM    418  HD1 PHE A  13)   0.82914
  419  H(ATOM    419  HD2 PHE A  13)   0.83885
  420  H(ATOM    420  HE1 PHE A  13)   0.84595
  421  H(ATOM    421  HE2 PHE A  13)   0.84547
  422  H(ATOM    422  HZ  PHE A  13)   0.86479
  423  H(ATOM    423  H   ASN A  14)   0.64712
  424  H(ATOM    424  HA  ASN A  14)   0.79829
  425  H(ATOM    425 1HB  ASN A  14)   0.82682
  426  H(ATOM    426 2HB  ASN A  14)   0.81300
  427  H(ATOM    427 1HD2 ASN A  14)   0.71249
  428  H(ATOM    428 2HD2 ASN A  14)   0.72316
  429  H(ATOM    429  H   VAL A  15)   0.65123
  430  H(ATOM    430  HA  VAL A  15)   0.81674
  431  H(ATOM    431  HB  VAL A  15)   0.84607
  432  H(ATOM    432 1HG1 VAL A  15)   0.83860
  433  H(ATOM    433 2HG1 VAL A  15)   0.84822
  434  H(ATOM    434 3HG1 VAL A  15)   0.85665
  435  H(ATOM    435 1HG2 VAL A  15)   0.83882
  436  H(ATOM    436 2HG2 VAL A  15)   0.85258
  437  H(ATOM    437 3HG2 VAL A  15)   0.85540
  438  H(ATOM    438  H   CYS A  16)   0.64736
  439  H(ATOM    439  HA  CYS A  16)   0.82314
  440  H(ATOM    440 1HB  CYS A  16)   0.81278
  441  H(ATOM    441 2HB  CYS A  16)   0.80139
  442  H(ATOM    442  H   ARG A  17)   0.65060
  443  H(ATOM    443  HA  ARG A  17)   0.81857
  444  H(ATOM    444 1HB  ARG A  17)   0.82609
  445  H(ATOM    445 2HB  ARG A  17)   0.83806
  446  H(ATOM    446 1HG  ARG A  17)   0.85412
  447  H(ATOM    447 2HG  ARG A  17)   0.81899
  448  H(ATOM    448 1HD  ARG A  17)   0.83111
  449  H(ATOM    449 2HD  ARG A  17)   0.88468
  450  H(ATOM    450  HE  ARG A  17)   0.64788
  451  H(ATOM    451 1HH1 ARG A  17)   0.68526
  452  H(ATOM    452 2HH1 ARG A  17)   0.65739
  453  H(ATOM    453  HH2 ARG A  17)   0.73026
  454  H(ATOM    454  H   LEU A  18)   0.64753
  455  H(ATOM    455  HA  LEU A  18)   0.82309
  456  H(ATOM    456 1HB  LEU A  18)   0.83317
  457  H(ATOM    457 2HB  LEU A  18)   0.84371
  458  H(ATOM    458  HG  LEU A  18)   0.84204
  459  H(ATOM    459 1HD1 LEU A  18)   0.85305
  460  H(ATOM    460 2HD1 LEU A  18)   0.85731
  461  H(ATOM    461 3HD1 LEU A  18)   0.86482
  462  H(ATOM    462 1HD2 LEU A  18)   0.84552
  463  H(ATOM    463 2HD2 LEU A  18)   0.86324
  464  H(ATOM    464 3HD2 LEU A  18)   0.85841
  465  H(ATOM    465  HA  PRO A  19)   0.81876
  466  H(ATOM    466 1HB  PRO A  19)   0.85039
  467  H(ATOM    467 2HB  PRO A  19)   0.83553
  468  H(ATOM    468 1HG  PRO A  19)   0.84924
  469  H(ATOM    469 2HG  PRO A  19)   0.85667
  470  H(ATOM    470 1HD  PRO A  19)   0.81652
  471  H(ATOM    471 2HD  PRO A  19)   0.86109
  472  H(ATOM    472  H   GLY A  20)   0.65048
  473  H(ATOM    473 1HA  GLY A  20)   0.80355
  474  H(ATOM    474 2HA  GLY A  20)   0.80523
  475  H(ATOM    475  H   THR A  21)   0.67507
  476  H(ATOM    476  HA  THR A  21)   0.84777
  477  H(ATOM    477  HB  THR A  21)   0.83586
  478  H(ATOM    478  HG1 THR A  21)   0.66505
  479  H(ATOM    479 1HG2 THR A  21)   0.84010
  480  H(ATOM    480 2HG2 THR A  21)   0.85333
  481  H(ATOM    481 3HG2 THR A  21)   0.81726
  482  H(ATOM    482  HA  PRO A  22)   0.84531
  483  H(ATOM    483 1HB  PRO A  22)   0.85145
  484  H(ATOM    484 2HB  PRO A  22)   0.85572
  485  H(ATOM    485 1HG  PRO A  22)   0.84943
  486  H(ATOM    486 2HG  PRO A  22)   0.83839
  487  H(ATOM    487 1HD  PRO A  22)   0.85594
  488  H(ATOM    488 2HD  PRO A  22)   0.83507
  489  H(ATOM    489  H   GLU A  23)   0.67388
  490  H(ATOM    490  HA  GLU A  23)   0.80590
  491  H(ATOM    491 1HB  GLU A  23)   0.81926
  492  H(ATOM    492 2HB  GLU A  23)   0.84306
  493  H(ATOM    493 1HG  GLU A  23)   0.80957
  494  H(ATOM    494 2HG  GLU A  23)   0.81975
  495  H(ATOM    495  HE2 GLU A  23)   0.64074
  496  H(ATOM    496  H   ALA A  24)   0.68562
  497  H(ATOM    497  HA  ALA A  24)   0.81477
  498  H(ATOM    498 1HB  ALA A  24)   0.83898
  499  H(ATOM    499 2HB  ALA A  24)   0.84854
  500  H(ATOM    500 3HB  ALA A  24)   0.81865
  501  H(ATOM    501  H   LEU A  25)   0.68127
  502  H(ATOM    502  HA  LEU A  25)   0.80506
  503  H(ATOM    503 1HB  LEU A  25)   0.84505
  504  H(ATOM    504 2HB  LEU A  25)   0.82823
  505  H(ATOM    505  HG  LEU A  25)   0.87641
  506  H(ATOM    506 1HD1 LEU A  25)   0.86513
  507  H(ATOM    507 2HD1 LEU A  25)   0.84448
  508  H(ATOM    508 3HD1 LEU A  25)   0.85642
  509  H(ATOM    509 1HD2 LEU A  25)   0.84618
  510  H(ATOM    510 2HD2 LEU A  25)   0.86227
  511  H(ATOM    511 3HD2 LEU A  25)   0.85211
  512  H(ATOM    512  H   CYS A  26)   0.64693
  513  H(ATOM    513  HA  CYS A  26)   0.80821
  514  H(ATOM    514 1HB  CYS A  26)   0.82560
  515  H(ATOM    515 2HB  CYS A  26)   0.81083
  516  H(ATOM    516  H   ALA A  27)   0.65425
  517  H(ATOM    517  HA  ALA A  27)   0.82247
  518  H(ATOM    518 1HB  ALA A  27)   0.83582
  519  H(ATOM    519 2HB  ALA A  27)   0.84168
  520  H(ATOM    520 3HB  ALA A  27)   0.81024
  521  H(ATOM    521  H   THR A  28)   0.64615
  522  H(ATOM    522  HA  THR A  28)   0.80677
  523  H(ATOM    523  HB  THR A  28)   0.87087
  524  H(ATOM    524  HG1 THR A  28)   0.64661
  525  H(ATOM    525 1HG2 THR A  28)   0.83907
  526  H(ATOM    526 2HG2 THR A  28)   0.82694
  527  H(ATOM    527 3HG2 THR A  28)   0.84191
  528  H(ATOM    528  H   TYR A  29)   0.65085
  529  H(ATOM    529  HA  TYR A  29)   0.82241
  530  H(ATOM    530 1HB  TYR A  29)   0.82560
  531  H(ATOM    531 2HB  TYR A  29)   0.83891
  532  H(ATOM    532  HD1 TYR A  29)   0.84864
  533  H(ATOM    533  HD2 TYR A  29)   0.83397
  534  H(ATOM    534  HE1 TYR A  29)   0.84664
  535  H(ATOM    535  HE2 TYR A  29)   0.81619
  536  H(ATOM    536  HH  TYR A  29)   0.65597
  537  H(ATOM    537  H   THR A  30)   0.64839
  538  H(ATOM    538  HA  THR A  30)   0.80219
  539  H(ATOM    539  HB  THR A  30)   0.87889
  540  H(ATOM    540  HG1 THR A  30)   0.69378
  541  H(ATOM    541 1HG2 THR A  30)   0.86120
  542  H(ATOM    542 2HG2 THR A  30)   0.81556
  543  H(ATOM    543 3HG2 THR A  30)   0.83656
  544  H(ATOM    544  H   GLY A  31)   0.64063
  545  H(ATOM    545 1HA  GLY A  31)   0.81865
  546  H(ATOM    546 2HA  GLY A  31)   0.81154
  547  H(ATOM    547  H   CYS A  32)   0.69165
  548  H(ATOM    548  HA  CYS A  32)   0.82207
  549  H(ATOM    549 1HB  CYS A  32)   0.81762
  550  H(ATOM    550 2HB  CYS A  32)   0.79938
  551  H(ATOM    551  H   ILE A  33)   0.65265
  552  H(ATOM    552  HA  ILE A  33)   0.82812
  553  H(ATOM    553  HB  ILE A  33)   0.86166
  554  H(ATOM    554 1HG1 ILE A  33)   0.86262
  555  H(ATOM    555 2HG1 ILE A  33)   0.83600
  556  H(ATOM    556 1HG2 ILE A  33)   0.85094
  557  H(ATOM    557 2HG2 ILE A  33)   0.82547
  558  H(ATOM    558 3HG2 ILE A  33)   0.84292
  559  H(ATOM    559 1HD1 ILE A  33)   0.85274
  560  H(ATOM    560 2HD1 ILE A  33)   0.86488
  561  H(ATOM    561 3HD1 ILE A  33)   0.83694
  562  H(ATOM    562  H   ILE A  34)   0.68276
  563  H(ATOM    563  HA  ILE A  34)   0.80252
  564  H(ATOM    564  HB  ILE A  34)   0.85216
  565  H(ATOM    565 1HG1 ILE A  34)   0.85332
  566  H(ATOM    566 2HG1 ILE A  34)   0.85636
  567  H(ATOM    567 1HG2 ILE A  34)   0.83843
  568  H(ATOM    568 2HG2 ILE A  34)   0.83920
  569  H(ATOM    569 3HG2 ILE A  34)   0.85303
  570  H(ATOM    570 1HD1 ILE A  34)   0.86988
  571  H(ATOM    571 2HD1 ILE A  34)   0.86135
  572  H(ATOM    572 3HD1 ILE A  34)   0.84963
  573  H(ATOM    573  H   ILE A  35)   0.63186
  574  H(ATOM    574  HA  ILE A  35)   0.82856
  575  H(ATOM    575  HB  ILE A  35)   0.88180
  576  H(ATOM    576 1HG1 ILE A  35)   0.83682
  577  H(ATOM    577 2HG1 ILE A  35)   0.83443
  578  H(ATOM    578 1HG2 ILE A  35)   0.86046
  579  H(ATOM    579 2HG2 ILE A  35)   0.83687
  580  H(ATOM    580 3HG2 ILE A  35)   0.84786
  581  H(ATOM    581 1HD1 ILE A  35)   0.84741
  582  H(ATOM    582 2HD1 ILE A  35)   0.87911
  583  H(ATOM    583 3HD1 ILE A  35)   0.85100
  584  H(ATOM    584  HA  PRO A  36)   0.80864
  585  H(ATOM    585 1HB  PRO A  36)   0.84540
  586  H(ATOM    586 2HB  PRO A  36)   0.84357
  587  H(ATOM    587 1HG  PRO A  36)   0.85546
  588  H(ATOM    588 2HG  PRO A  36)   0.85151
  589  H(ATOM    589 1HD  PRO A  36)   0.86053
  590  H(ATOM    590 2HD  PRO A  36)   0.85405
  591  H(ATOM    591  H   GLY A  37)   0.67696
  592  H(ATOM    592 1HA  GLY A  37)   0.85269
  593  H(ATOM    593 2HA  GLY A  37)   0.81732
  594  H(ATOM    594  H   ALA A  38)   0.71763
  595  H(ATOM    595  HA  ALA A  38)   0.77400
  596  H(ATOM    596 1HB  ALA A  38)   0.83656
  597  H(ATOM    597 2HB  ALA A  38)   0.85988
  598  H(ATOM    598 3HB  ALA A  38)   0.82021
  599  H(ATOM    599  H   THR A  39)   0.68686
  600  H(ATOM    600  HA  THR A  39)   0.80784
  601  H(ATOM    601  HB  THR A  39)   0.87552
  602  H(ATOM    602  HG1 THR A  39)   0.67021
  603  H(ATOM    603 1HG2 THR A  39)   0.82146
  604  H(ATOM    604 2HG2 THR A  39)   0.83269
  605  H(ATOM    605 3HG2 THR A  39)   0.83958
  606  H(ATOM    606  H   CYS A  40)   0.66802
  607  H(ATOM    607  HA  CYS A  40)   0.82714
  608  H(ATOM    608 1HB  CYS A  40)   0.80778
  609  H(ATOM    609 2HB  CYS A  40)   0.78943
  610  H(ATOM    610  HA  PRO A  41)   0.84452
  611  H(ATOM    611 1HB  PRO A  41)   0.82455
  612  H(ATOM    612 2HB  PRO A  41)   0.85396
  613  H(ATOM    613 1HG  PRO A  41)   0.84495
  614  H(ATOM    614 2HG  PRO A  41)   0.82378
  615  H(ATOM    615 1HD  PRO A  41)   0.84938
  616  H(ATOM    616 2HD  PRO A  41)   0.86018
  617  H(ATOM    617  H   GLY A  42)   0.68518
  618  H(ATOM    618 1HA  GLY A  42)   0.84249
  619  H(ATOM    619 2HA  GLY A  42)   0.82026
  620  H(ATOM    620  H   ASP A  43)   0.64545
  621  H(ATOM    621  HA  ASP A  43)   0.83226
  622  H(ATOM    622 1HB  ASP A  43)   0.84563
  623  H(ATOM    623 2HB  ASP A  43)   0.80797
  624  H(ATOM    624  H   TYR A  44)   0.65609
  625  H(ATOM    625  HA  TYR A  44)   0.82854
  626  H(ATOM    626 1HB  TYR A  44)   0.85135
  627  H(ATOM    627 2HB  TYR A  44)   0.84069
  628  H(ATOM    628  HD1 TYR A  44)   0.81753
  629  H(ATOM    629  HD2 TYR A  44)   0.87041
  630  H(ATOM    630  HE1 TYR A  44)   0.81768
  631  H(ATOM    631  HE2 TYR A  44)   0.81579
  632  H(ATOM    632  HH  TYR A  44)   0.65264
  633  H(ATOM    633  H   ALA A  45)   0.68053
  634  H(ATOM    634  HA  ALA A  45)   0.80196
  635  H(ATOM    635 1HB  ALA A  45)   0.81143
  636  H(ATOM    636 2HB  ALA A  45)   0.85246
  637  H(ATOM    637 3HB  ALA A  45)   0.82817
  638  H(ATOM    638  H   ASN A  46)   0.65766
  639  H(ATOM    639  HA  ASN A  46)   0.77844
  640  H(ATOM    640  HXT ASN A  46)   0.58705
  641  H(ATOM    641 1HB  ASN A  46)   0.81133
  642  H(ATOM    642 2HB  ASN A  46)   0.83458
  643  H(ATOM    643 1HD2 ASN A  46)   0.69187
  644  H(ATOM    644 2HD2 ASN A  46)   0.74307
  645  H(HETATM  645 1H1  EOH A  66)   0.84678
  646  H(HETATM  646 2H1  EOH A  66)   0.83954
  647  H(HETATM  647 3H1  EOH A  66)   0.85361
  648  H(HETATM  648 1H2  EOH A  66)   0.86684
  649  H(HETATM  649 2H2  EOH A  66)   0.87959
  650  H(HETATM  650  H   EOH A  66)   0.69166

 **********************
 *                    *
 * JOB ENDED NORMALLY *
 *                    *
 **********************



 TOTAL JOB TIME:            63.57 SECONDS

 == MOPAC DONE ==
