 *******************************************************************************
 ** Site#:    0         For non-commercial use only    Version 20.173L 64BITS **
 *******************************************************************************
 ** Cite this program as: MOPAC2016, Version: 20.173L, James J. P. Stewart,   **
 ** Stewart Computational Chemistry, web-site: HTTP://OpenMOPAC.net.          **
 *******************************************************************************
 **                                                                           **
 **                                MOPAC2016                                  **
 **                                                                           **
 *******************************************************************************

                              INDO CALCULATION RESULTS

 *******************************************************************************
 *  CALCULATION DONE:                                Mon Jun 29 13:00:49 2020  *
 *  INDO       - The INDO Hamiltonian to be used
 *  MRCI       -  Use multi-reference CI (specify ref dets using C.A.S.)
 * C.A.S.=(N,M)-  1 DOUBLY FILLED LEVELS USED IN A
 *             CAS REF DET GENERATION INVOLVING  3 M.O.'S
 *  T=         - A TIME OF 172800.0 SECONDS REQUESTED
 *  DUMP=N     - RESTART FILE WRITTEN EVERY 7200.0 SECONDS REQUESTED
 *******************************************************************************
INDO MRCI C.A.S.=(3,1)
 Nitric oxide
 INDO
   ATOM   CHEMICAL          X               Y               Z
  NUMBER   SYMBOL      (ANGSTROMS)     (ANGSTROMS)     (ANGSTROMS)
 
     1       N          0.00000000      0.00000000      0.00000000   
     2       O          1.17300000      0.00000000      0.00000000   
 


          CARTESIAN COORDINATES 

    NO.       ATOM           X           Y           Z

     1         N          0.0000      0.0000      0.0000
     2         O          1.1730      0.0000      0.0000

           Empirical Formula: N O  =     2 atoms



      MOLECULAR POINT GROUP   :   C*v 
           INDO does not support UHF - defaulting to ROHF

      THERE ARE    5 DOUBLY FILLED LEVELS


      RHF CALCULATION, NO. OF DOUBLY OCCUPIED LEVELS = 5


                       NO. OF SINGLY OCCUPIED LEVELS =    1
 WARNING: INDO only performs single-point calculations

 Summary of symmetry occupancy in each shell:

 SHELL     
    1    5
    2    1
    v    2
 TOTAL   8




    ROOT NO.    1           2           3           4           5           6

           -46.30852   -22.70657   -17.77413   -16.30737   -15.67555   -11.08334
  
  
  S  N   1   0.52481     0.64123    -0.48138     0.00000    -0.00000     0.00000
 PX  N   1   0.36449    -0.12789     0.62805    -0.00000     0.00000     0.00000
 PY  N   1  -0.00000     0.00000     0.00000     0.52303    -0.00000     0.85231
 PZ  N   1  -0.00000    -0.00000    -0.00000     0.00000     0.58633     0.00001
  
  S  O   2   0.70161    -0.61273    -0.22223     0.00000    -0.00000    -0.00000
 PX  O   2  -0.31538    -0.44387    -0.56960     0.00000    -0.00000    -0.00000
 PY  O   2  -0.00000     0.00000     0.00000     0.85231    -0.00001    -0.52303
 PZ  O   2  -0.00000     0.00000     0.00000     0.00001     0.81007    -0.00000




    ROOT NO.    7           8

            -1.67356    11.42925
  
  
  S  N   1   0.00000     0.28577
 PX  N   1  -0.00000     0.67553
 PY  N   1  -0.00001     0.00000
 PZ  N   1   0.81007     0.00000
  
  S  O   2   0.00000    -0.28795
 PX  O   2   0.00000     0.61569
 PY  O   2   0.00000    -0.00000
 PZ  O   2  -0.58633     0.00000


 Reference determinate nber   1 is ALPHA 1 -   6
 CAS excitations amongst orbitals:   5   6   7
 SINGLE excitations FROM orbs   1 to   6 INTO orbs   6 to   8
 

 CI excitations=  121:        =121
 The lowest  121 spin-adapted configurations of multiplicity=  2
     sym   eV   cm**-1 -dets- dipole oscilator X FRAG ....Excitations named from first reference determinate
                       tot  #  Debye  strength
 
   1      0.000      0.  1  1  0.3381 0.000000 0  1 (            )->(               )
   2      0.101    815.  1  1  0.7337 0.000000 1  1 (   6        )->(   7           )
   3      4.974  40119.  3  1  1.4221 0.000078 1  1 (   5        )->(   7           )
   4      5.233  42210.  3  1  1.8177 0.000000 1  1 (   4        )->(   7           )
   5      6.160  49685.  1  1  1.4221 0.000000 2  1 (   4   6    )->(   7   7       )
   6      6.425  51822.  1  1  1.8177 0.000000 1  1 (   5        )->(   6           )
   7      7.324  59071.  1  1  1.0264 0.000000 2  1 (   5   6    )->(   7   7       )
   8      7.672  61881.  3  1  0.8981 0.004582 1  1 (   3        )->(   7           )
   9      7.734  62379.  1  1  2.2134 0.185017 1  1 (   4        )->(   6           )
  10      8.153  65757.  1  1  0.5025 0.010561 1  1 (   3        )->(   6           )
  11      8.156  65786.  1  1  1.2938 0.000000 2  1 (   3   6    )->(   7   7       )
  12      8.446  68119.  3  2  0.8981 0.012512 1  1 (   3        )->(   7           )
  13      9.857  79501.  3  2  1.8177 0.000000 1  1 (   4        )->(   7           )
  14     10.333  83343.  3  2  1.4221 0.561081 1  1 (   5        )->(   7           )
  15     12.994 104800.  3  1  1.5188 0.056968 1  1 (   2        )->(   7           )
  16     13.358 107740.  1  1  1.1232 0.000000 2  1 (   2   6    )->(   7   7       )
  17     13.471 108654.  1  1  1.5542 0.025112 1  1 (   6        )->(   8           )
  18     13.592 109624.  1  1  1.9145 0.123039 1  1 (   2        )->(   6           )
  19     13.832 111562.  3  1  3.5779 0.000000 2  1 (   4   5    )->(   7   7       )
  20     14.092 113657.  3  1  3.9735 0.000000 2  1 (   4   5    )->(   6   7       )
  21     14.124 113914.  3  1  1.2577 0.000000 2  1 (   3   5    )->(   6   7       )
  22     14.828 119597.  3  2  1.5188 0.207497 1  1 (   2        )->(   7           )
  23     15.030 121226.  3  1  0.8620 0.000000 2  1 (   3   5    )->(   7   7       )
  24     15.049 121382.  1  1  3.5779 0.000000 2  1 (   5   5    )->(   6   7       )
  25     15.847 127816.  1  1  3.1822 0.000000 2  1 (   5   5    )->(   7   7       )
  26     15.918 128385.  3  2  0.8620 0.000000 2  1 (   3   5    )->(   7   7       )
  27     18.341 147926.  3  1  0.2059 0.000000 2  1 (   5   6    )->(   7   8       )
  28     18.441 148733.  3  2  3.5779 0.000000 2  1 (   4   5    )->(   7   7       )
  29     18.549 149605.  3  1  0.6016 0.000000 2  1 (   4   6    )->(   7   8       )
  30     18.551 149626.  3  1  0.9972 0.001379 1  1 (   4        )->(   8           )
  31     18.552 149635.  3  1  0.6016 0.000119 1  1 (   5        )->(   8           )
  32     18.817 151771.  3  2  1.2577 0.000000 2  1 (   3   5    )->(   6   7       )
  33     19.098 154040.  3  2  0.6016 0.000000 2  1 (   4   6    )->(   7   8       )
  34     19.104 154081.  3  2  0.6016 0.000415 1  1 (   5        )->(   8           )
  35     19.428 156696.  3  2  3.9735 0.000000 2  1 (   4   5    )->(   6   7       )
  36     20.906 168622.  3  1  3.2790 0.000000 2  1 (   2   5    )->(   7   7       )
  37     21.512 173506.  3  1  3.6746 0.000000 2  1 (   2   5    )->(   6   7       )
  38     21.777 175645.  3  1  1.7186 0.015677 1  1 (   3        )->(   8           )
  39     21.906 176684.  3  1  2.1143 0.000000 2  1 (   3   6    )->(   7   8       )
  40     22.727 183305.  3  2  0.9972 0.000574 1  1 (   4        )->(   8           )
  41     23.051 185923.  3  2  1.7186 0.578944 1  1 (   3        )->(   8           )
  42     23.092 186252.  3  2  3.2790 0.000000 2  1 (   2   5    )->(   7   7       )
  43     23.192 187057.  3  2  2.1143 0.000000 2  1 (   3   6    )->(   7   8       )
  44     23.248 187509.  3  2  0.2059 0.000000 2  1 (   5   6    )->(   7   8       )
  45     23.904 192798. 10  1  2.7574 0.000000 2  1 (   4   5    )->(   7   8       )
  46     24.344 196349. 10  2  2.7574 0.000000 2  1 (   4   5    )->(   7   8       )
  47     24.656 198868.  1  1  3.0178 0.000000 3  1 (   3   5   5)->(   6   7   7   )
  48     24.782 199884.  3  2  3.6746 0.000000 2  1 (   2   5    )->(   6   7       )
  49     26.301 212134.  1  1  5.7337 0.000000 3  1 (   4   5   5)->(   6   7   7   )
  50     26.313 212229.  1  1  2.7574 0.000000 2  1 (   5   5    )->(   6   8       )
  51     26.406 212978. 10  1  0.0415 0.000000 2  1 (   3   5    )->(   7   8       )
  52     26.650 214945.  3  1  0.6983 0.004540 1  1 (   2        )->(   8           )
  53     26.675 215152.  3  1  0.3027 0.000000 2  1 (   2   6    )->(   7   8       )
  54     26.759 215830.  3  1  2.3617 0.000000 3  1 (   4   5   6)->(   7   7   8   )
  55     26.780 215994.  3  1  2.3617 0.000000 3  1 (   5   5   6)->(   6   7   8   )
  56     27.079 218403.  3  2  2.3617 0.000000 3  1 (   4   5   6)->(   7   7   8   )
  57     27.107 218631.  3  2  2.3617 0.000000 3  1 (   5   5   6)->(   6   7   8   )
  58     27.336 220482.  3  1  3.1530 0.000000 2  1 (   4   5    )->(   6   8       )
  59     27.355 220630. 10  2  0.0415 0.000000 2  1 (   3   5    )->(   7   8       )
  60     27.655 223056.  3  2  3.1530 0.000000 2  1 (   4   5    )->(   6   8       )
  61     27.772 223996.  3  1  0.4372 0.000000 2  1 (   3   5    )->(   6   8       )
  62     27.792 224161. 10  3  0.0415 0.000000 2  1 (   3   5    )->(   7   8       )
  63     27.940 225353.  3  2  0.6983 0.003863 1  1 (   2        )->(   8           )
  64     28.013 225937.  3  2  0.3027 0.000000 2  1 (   2   6    )->(   7   8       )
  65     28.209 227518.  1  1  1.9661 0.000000 3  1 (   5   5   6)->(   7   7   8   )
  66     28.772 232066.  3  1  0.3541 0.000000 3  1 (   3   5   6)->(   7   7   8   )
  67     28.939 233408. 10  3  2.7574 0.000000 2  1 (   4   5    )->(   7   8       )
  68     29.164 235222.  3  2  0.4372 0.000000 2  1 (   3   5    )->(   6   8       )
  69     29.705 239589. 10  4  2.7574 0.000000 2  1 (   4   5    )->(   7   8       )
  70     30.164 243292.  3  2  0.3541 0.000000 3  1 (   3   5   6)->(   7   7   8   )
  71     31.150 251242.  1  1  5.4348 0.000000 3  1 (   2   5   5)->(   6   7   7   )
  72     31.886 257181. 10  4  0.0415 0.000000 2  1 (   3   5    )->(   7   8       )
  73     31.887 257188. 10  1  2.4585 0.000000 2  1 (   2   5    )->(   7   8       )
  74     33.161 267461. 10  5  0.0415 0.000000 2  1 (   3   5    )->(   7   8       )
  75     33.378 269215. 10  2  2.4585 0.000000 2  1 (   2   5    )->(   7   8       )
  76     33.398 269372.  3  1  2.8541 0.000000 2  1 (   2   5    )->(   6   8       )
  77     33.868 273161. 10  5  2.7574 0.000000 2  1 (   4   5    )->(   7   8       )
  78     34.161 275530.  3  1  2.0628 0.000000 3  1 (   2   5   6)->(   7   7   8   )
  79     34.560 278747. 10  3  2.4585 0.000000 2  1 (   2   5    )->(   7   8       )
  80     34.949 281882.  3  2  2.8541 0.000000 2  1 (   2   5    )->(   6   8       )
  81     35.712 288040.  3  2  2.0628 0.000000 3  1 (   2   5   6)->(   7   7   8   )
  82     36.009 290430.  3  1  4.5175 0.000000 3  1 (   4   5   5)->(   7   7   8   )
  83     36.299 292774.  3  1  2.1973 0.000000 3  1 (   3   5   5)->(   6   7   8   )
  84     36.583 295060.  3  1  4.9132 0.000000 3  1 (   4   5   5)->(   6   7   8   )
  85     36.601 295207.  3  1  1.0649 0.001114 1  1 (   1        )->(   7           )
  86     36.969 298173.  1  1  0.6692 0.000000 2  1 (   1   6    )->(   7   7       )
  87     37.133 299495.  3  2  4.9132 0.000000 3  1 (   4   5   5)->(   6   7   8   )
  88     37.171 299805.  3  1  1.8017 0.000000 3  1 (   3   5   5)->(   7   7   8   )
  89     37.200 300043.  1  1  1.4605 0.008802 1  1 (   1        )->(   6           )
  90     37.287 300738. 10  4  2.4585 0.000000 2  1 (   2   5    )->(   7   8       )
  91     37.585 303147.  3  2  2.1973 0.000000 3  1 (   3   5   5)->(   6   7   8   )
  92     38.239 308417.  3  2  1.0649 0.004235 1  1 (   1        )->(   7           )
  93     38.445 310083.  3  2  1.8017 0.000000 3  1 (   3   5   5)->(   7   7   8   )
  94     38.580 311167. 10  5  2.4585 0.000000 2  1 (   2   5    )->(   7   8       )
  95     40.184 324108.  3  2  4.5175 0.000000 3  1 (   4   5   5)->(   7   7   8   )
  96     42.360 341660.  3  1  4.6143 0.000000 3  1 (   2   5   5)->(   6   7   8   )
  97     43.098 347611.  3  1  4.2186 0.000000 3  1 (   2   5   5)->(   7   7   8   )
  98     43.698 352446.  3  2  4.6143 0.000000 3  1 (   2   5   5)->(   6   7   8   )
  99     44.389 358019.  3  2  4.2186 0.000000 3  1 (   2   5   5)->(   7   7   8   )
 100     44.462 358609.  3  1  2.8250 0.000000 2  1 (   1   5    )->(   7   7       )
 101     45.158 364222.  3  1  3.2207 0.000000 2  1 (   1   5    )->(   6   7       )
 102     46.764 377181.  3  2  2.8250 0.000000 2  1 (   1   5    )->(   7   7       )
 103     48.411 390464.  3  2  3.2207 0.000000 2  1 (   1   5    )->(   6   7       )
 104     48.763 393305.  3  1  0.2443 0.000975 1  1 (   1        )->(   8           )
 105     48.864 394113.  3  1  0.1513 0.000000 2  1 (   1   6    )->(   7   8       )
 106     54.257 437610.  3  2  0.2443 0.112878 1  1 (   1        )->(   8           )
 107     54.277 437776. 10  1  2.0045 0.000000 2  1 (   1   5    )->(   7   8       )
 108     54.305 438000.  3  2  0.1513 0.000000 2  1 (   1   6    )->(   7   8       )
 109     54.751 441600.  1  1  4.9808 0.000000 3  1 (   1   5   5)->(   6   7   7   )
 110     55.888 450767.  3  1  2.4001 0.000000 2  1 (   1   5    )->(   6   8       )
 111     56.077 452297. 10  2  2.0045 0.000000 2  1 (   1   5    )->(   7   8       )
 112     56.653 456939.  3  1  1.6088 0.000000 3  1 (   1   5   6)->(   7   7   8   )
 113     59.284 478160. 10  3  2.0045 0.000000 2  1 (   1   5    )->(   7   8       )
 114     59.736 481806. 10  4  2.0045 0.000000 2  1 (   1   5    )->(   7   8       )
 115     61.146 493174.  3  2  2.4001 0.000000 2  1 (   1   5    )->(   6   8       )
 116     61.911 499345.  3  2  1.6088 0.000000 3  1 (   1   5   6)->(   7   7   8   )
 117     64.540 520548.  3  1  4.1603 0.000000 3  1 (   1   5   5)->(   6   7   8   )
 118     64.897 523429. 10  5  2.0045 0.000000 2  1 (   1   5    )->(   7   8       )
 119     65.205 525911.  3  1  3.7646 0.000000 3  1 (   1   5   5)->(   7   7   8   )
 120     69.981 564435.  3  2  4.1603 0.000000 3  1 (   1   5   5)->(   6   7   8   )
 121     70.698 570216.  3  2  3.7646 0.000000 3  1 (   1   5   5)->(   7   7   8   )

 Depression of ground-state after CI=      -9996. cm**-1 Energy=  -544.3029895 eV
 Dipole moment=  0.057752  0.000000 -0.000000 tot=  0.057752 Debyes


  CI trans.  energy frequency wavelength oscillator ---------polarization---------    dipole   ------components----- 
 st.  symm.    eV      cm-1       nm      strength       x          y         z       moment     x       y       z 

   2      0.5517676     4450.   2247.03  0.000000                                   0.116740   0.117   0.000   0.000
   3      5.6223589    45347.    220.52  0.000818  -1.000000   0.000000  -0.000000  0.764047   0.764   0.000  -0.000
   4      5.7342528    46250.    216.22  0.000000                                   0.902599   0.903   0.000  -0.000
   5      6.3799757    51458.    194.33  0.000030   1.000000   0.000000  -0.000000  0.852925   0.853  -0.000   0.000
   6      6.3808333    51465.    194.31  0.000000                                   0.856930   0.857   0.000  -0.000
   7      7.5053864    60535.    165.19  0.000000                                   0.876508   0.877   0.000   0.000
   8      7.7091383    62179.    160.83  0.001341  -1.000000  -0.000000  -0.000000  1.320182   1.320  -0.000   0.000
   9      8.2693096    66697.    149.93  0.015120  -0.000000  -1.000000  -0.000072  1.061819  -1.062   0.000   0.000
  10      8.5751798    69164.    144.58  0.011194  -0.000000   0.000107  -1.000000  0.914143  -0.914   0.000  -0.000
  11      9.1820019    74058.    135.03  0.000601   0.000000  -0.000118  -1.000000  0.326977  -0.327  -0.000   0.000
  12      9.4853926    76505.    130.71  0.002830   0.000000  -1.000000   0.000008  1.374657  -1.375   0.000   0.000
  13     10.6951153    86262.    115.93  0.304421   1.000000  -0.000000   0.000000  0.369382  -0.369   0.000   0.000
  14     11.3880399    91851.    108.87  0.000000                                   0.997835  -0.998   0.000  -0.000
  15     12.6705725   102195.     97.85  0.017701  -0.000000  -1.000000  -0.000166  1.120888   1.121   0.000   0.000
  16     12.8308763   103488.     96.63  0.126833  -0.000000   0.000010  -1.000000  1.459390   1.459   0.000   0.000
  17     13.2339129   106739.     93.69  0.070662   0.000000   1.000000  -0.000030  0.518493   0.518   0.000   0.000
  18     14.4534040   116575.     85.78  0.041247  -0.000000   0.000066   1.000000  0.768663   0.769  -0.000  -0.000
  19     14.6960682   118532.     84.37  0.004736   0.000000   1.000000  -0.000113  1.071444   1.071  -0.000  -0.000
  20     14.9072592   120235.     83.17  0.004685   1.000000  -0.000000   0.000000  4.227040   4.227   0.000  -0.000
  21     15.5121298   125114.     79.93  0.000000                                   4.519108   4.519   0.000  -0.000
  22     15.5938659   125773.     79.51  0.028093  -0.000000  -1.000000   0.000025  0.260632   0.261  -0.000   0.000
  23     15.6859333   126516.     79.04  0.000000                                   3.764872   3.765  -0.000  -0.000
  24     15.7171909   126768.     78.88  0.002236  -1.000000   0.000000   0.000000  4.115338   4.115   0.000   0.000
  25     16.6900636   134615.     74.29  0.014428  -0.000000   0.000015  -1.000000  1.121318  -1.121   0.000  -0.000
  26     17.9421579   144714.     69.10  0.003604   1.000000   0.000000  -0.000000  0.748208   0.748   0.000   0.000
  27     18.4336817   148678.     67.26  0.074773  -0.000000   0.000011   1.000000  1.639927  -1.640   0.000  -0.000
  28     18.8103085   151716.     65.91  0.011369   0.000000   1.000000   0.000002  0.895435  -0.895  -0.000  -0.000
  29     18.9603195   152926.     65.39  0.000023  -0.000000   1.000000   0.000126  0.329305   0.329   0.000  -0.000
  30     19.1413396   154386.     64.77  0.000609  -0.000000  -0.000007  -1.000000  0.117836  -0.118   0.000  -0.000
  31     19.6796653   158728.     63.00  0.000000                                   4.766478   4.766  -0.000   0.000
  32     19.6798885   158729.     63.00  0.000200   0.000000  -0.000179   1.000000  0.131327  -0.131   0.000   0.000
  33     19.7069523   158948.     62.91  0.000043   0.000000  -0.999969   0.007812  0.123205  -0.123   0.000  -0.000
  34     19.7285400   159122.     62.84  0.001772  -0.000000  -0.000246  -1.000000  0.009722   0.010   0.000  -0.000
  35     19.7567904   159350.     62.76  0.000519  -0.000000  -1.000000   0.000126  0.020257   0.020   0.000   0.000
  36     20.3529809   164158.     60.92  0.000620  -0.000000  -0.000016  -1.000000  0.105740  -0.106   0.000  -0.000
  37     21.8625883   176334.     56.71  0.021782  -1.000000   0.000000   0.000000  1.170939  -1.171   0.000  -0.000
  38     22.5149725   181596.     55.07  0.000000                                   1.144038  -1.144   0.000  -0.000
  39     22.5947169   182239.     54.87  0.000114   0.000000   1.000000  -0.000212  3.110409   3.110  -0.000   0.000
  40     22.7902117   183816.     54.40  0.003554  -0.000000   0.000001   1.000000  5.304637   5.305   0.000   0.000
  41     23.2789227   187758.     53.26  0.623038   1.000000   0.000000  -0.000000  1.613706  -1.614   0.000   0.000
  42     23.5226137   189723.     52.71  0.002789  -0.000000  -1.000000   0.000016  3.244849   3.245  -0.000  -0.000
  43     24.6491723   198809.     50.30  0.000000                                   2.121350  -2.121   0.000  -0.000
  44     24.8195274   200183.     49.95  0.008348  -0.000000  -0.000010  -1.000000  5.378100   5.378   0.000   0.000
  45     24.8763376   200642.     49.84  0.000013  -0.000000   1.000000  -0.000068  2.541312   2.541  -0.000   0.000
  46     25.5835097   206345.     48.46  0.000000  -0.000000   1.000000  -0.000560  2.757341   2.757  -0.000   0.000
  47     26.2434703   211668.     47.24  0.000832   0.000000  -0.000038   1.000000  2.763412   2.763   0.000   0.000
  48     26.2436353   211670.     47.24  0.000010   0.000000   0.999992   0.004113  1.958728   1.959   0.000  -0.000
  49     26.4107418   213018.     46.94  0.078098  -1.000000  -0.000000   0.000000  0.972534   0.973   0.000  -0.000
  50     26.5584391   214209.     46.68  0.000031   0.000000   0.000238  -1.000000  2.794037   2.794  -0.000  -0.000
  51     26.6349384   214826.     46.55  0.000000                                   0.056879  -0.057   0.000   0.000
  52     26.7617865   215849.     46.33  0.069564  -1.000000   0.000000   0.000000  0.444097   0.444   0.000   0.000
  53     26.8424013   216499.     46.19  0.000158  -0.000000  -1.000000  -0.000036  0.694879   0.695  -0.000  -0.000
  54     27.0038000   217801.     45.91  0.000414  -0.000000   1.000000   0.000030  2.777983   2.778  -0.000  -0.000
  55     27.7475037   223799.     44.68  0.000000                                   0.851360   0.851  -0.000   0.000
  56     28.2263952   227662.     43.92  0.001403   1.000000   0.000000   0.000000  0.689385  -0.689   0.000  -0.000
  57     28.2692381   228007.     43.86  0.000521   0.000000   0.000001  -1.000000  2.478570   2.479   0.000   0.000
  58     28.3201679   228418.     43.78  0.000000                                   1.535964  -1.536  -0.000   0.000
  59     28.4738658   229658.     43.54  0.000133   0.000000  -1.000000  -0.000013  2.624144   2.624   0.000  -0.000
  60     28.4975936   229849.     43.51  0.001255   0.000000  -1.000000  -0.000239  0.211321   0.211  -0.000   0.000
  61     28.5267755   230085.     43.46  0.000772   0.000000   0.000365  -1.000000  2.753036   2.753   0.000   0.000
  62     28.7060019   231530.     43.19  0.000749  -0.000000  -0.000029   1.000000  1.963921   1.964   0.000   0.000
  63     28.8026255   232309.     43.05  0.001014  -1.000000  -0.000000   0.000000  0.493419  -0.493   0.000   0.000
  64     29.0957894   234674.     42.61  0.000009  -1.000000  -0.000000   0.000000  0.884233  -0.884   0.000  -0.000
  65     29.1824736   235373.     42.49  0.002880  -0.000000   0.000003  -1.000000  0.936814   0.937   0.000  -0.000
  66     29.5908625   238667.     41.90  0.000000                                   1.554875  -1.555   0.000  -0.000
  67     30.1779020   243402.     41.08  0.000053   0.000000   1.000000   0.000040  2.933043   2.933  -0.000  -0.000
  68     31.2723593   252229.     39.65  0.000000                                   2.261160  -2.261   0.000  -0.000
  69     31.9113133   257383.     38.85  0.004131  -1.000000   0.000000   0.000000  8.052016   8.052   0.000   0.000
  70     32.3767810   261137.     38.29  0.000978  -1.000000   0.000000   0.000000  0.468412  -0.468   0.000   0.000
  71     32.7733150   264335.     37.83  0.000000                                   3.198876  -3.199   0.000   0.000
  72     33.4116165   269484.     37.11  0.000000                                   3.026391   3.026  -0.000  -0.000
  73     33.4205903   269556.     37.10  0.005382   1.000000   0.000000  -0.000000  3.440629   3.441   0.000  -0.000
  74     34.0695678   274790.     36.39  0.001069  -1.000000  -0.000000   0.000000  0.512499   0.512   0.000  -0.000
  75     35.0312245   282547.     35.39  0.000085  -1.000000   0.000000   0.000000  2.569482   2.569   0.000   0.000
  76     35.0829617   282964.     35.34  0.000252   0.000000   1.000000  -0.000034  3.763827  -3.764  -0.000  -0.000
  77     35.4971248   286304.     34.93  0.000000                                   2.782018   2.782  -0.000   0.000
  78     35.6041841   287168.     34.82  0.007787   1.000000   0.000000  -0.000000  1.424129   1.424   0.000   0.000
  79     35.8943867   289508.     34.54  0.000000                                   3.936768   3.937   0.000   0.000
  80     36.5540779   294829.     33.92  0.014194   1.000000  -0.000000   0.000000  2.092999   2.093   0.000   0.000
  81     37.0961030   299201.     33.42  0.000000                                   0.180753   0.181   0.000  -0.000
  82     37.3104786   300930.     33.23  0.002300  -0.000000  -1.000000  -0.000017  9.027979   9.028  -0.000  -0.000
  83     37.4024026   301671.     33.15  0.000000                                   4.270491   4.270   0.000  -0.000
  84     37.6005420   303270.     32.97  0.004583  -1.000000  -0.000000   0.000000  0.677198   0.677  -0.000   0.000
  85     37.8345438   305157.     32.77  0.000708   0.000000  -1.000000  -0.000693  2.292881   2.293   0.000   0.000
  86     37.8673385   305421.     32.74  0.000639  -0.000000   0.000823  -1.000000  0.513179   0.513  -0.000  -0.000
  87     38.3129215   309015.     32.36  0.000000                                   1.325617   1.326  -0.000   0.000
  88     38.6559175   311782.     32.07  0.002736   0.000000  -1.000000   0.000011  1.150808   1.151   0.000   0.000
  89     39.2757183   316781.     31.57  0.000541  -1.000000  -0.000000   0.000000  1.162431  -1.162   0.000   0.000
  90     39.4390322   318098.     31.44  0.000295   0.000000   0.000047   1.000000  3.019877   3.020   0.000  -0.000
  91     39.4831583   318454.     31.40  0.000074  -0.000000  -0.000063  -1.000000  4.404899   4.405  -0.000  -0.000
  92     40.2697406   324798.     30.79  0.000093   0.000000   1.000000  -0.000003  7.665315   7.665   0.000  -0.000
  93     40.5006290   326660.     30.61  0.000042  -0.000000   0.000009  -1.000000  7.265691   7.266  -0.000  -0.000
  94     40.7119042   328364.     30.45  0.002025   1.000000  -0.000000   0.000000  0.554431  -0.554  -0.000  -0.000
  95     45.5657403   367513.     27.21  0.000000                                   7.362946   7.363  -0.000   0.000
  96     45.9505291   370617.     26.98  0.000247   0.000000  -0.000036   1.000000  3.463719   3.464   0.000  -0.000
  97     46.4010949   374251.     26.72  0.000001  -0.000000   1.000000   0.000131  9.335206   9.335  -0.000   0.000
  98     46.4630065   374750.     26.68  0.001299   0.000000  -1.000000  -0.000002  2.432180   2.432   0.000   0.000
  99     46.8601284   377953.     26.46  0.000000                                   8.861006   8.861   0.000  -0.000
 100     47.9210929   386511.     25.87  0.001783   0.000000   1.000000   0.000012  2.068145   2.068  -0.000  -0.000
 101     48.0908246   387880.     25.78  0.000091  -1.000000   0.000000  -0.000000  8.765191   8.765   0.000   0.000
 102     49.0259277   395422.     25.29  0.002701  -0.000000  -0.000006  -1.000000  4.368276   4.368   0.000  -0.000
 103     49.7885648   401573.     24.90  0.002168  -1.000000  -0.000000   0.000000  0.750571   0.751   0.000  -0.000
 104     50.0750433   403883.     24.76  0.002962   1.000000   0.000000  -0.000000 10.486978  10.487   0.000   0.000
 105     50.4649793   407029.     24.57  0.000000                                   0.856787  -0.857   0.000  -0.000
 106     55.1080533   444478.     22.50  0.172460   1.000000   0.000000   0.000000  0.738621   0.739   0.000  -0.000
 107     56.0291915   451907.     22.13  0.000000                                   0.437996  -0.438   0.000  -0.000
 108     56.1705696   453047.     22.07  0.041855  -1.000000  -0.000000   0.000000  1.657434   1.657   0.000   0.000
 109     56.8693808   458684.     21.80  0.000000                                   1.450055   1.450   0.000   0.000
 110     58.0407929   468132.     21.36  0.017166   1.000000   0.000000   0.000000  1.901227   1.901   0.000   0.000
 111     58.6773494   473266.     21.13  0.000000                                   2.308498   2.308   0.000   0.000
 112     59.3703344   478855.     20.88  0.000271   1.000000  -0.000000  -0.000000  0.726123  -0.726  -0.000   0.000
 113     59.6046629   480745.     20.80  0.000145  -0.000000  -1.000000  -0.000014  8.579202   8.579   0.000  -0.000
 114     61.3490312   494815.     20.21  0.000000   1.000000   0.000000   0.000000  2.102863   2.103   0.000  -0.000
 115     61.9342011   499534.     20.02  0.000000                                   1.313937   1.314   0.000  -0.000
 116     63.9955277   516160.     19.37  0.000000                                   2.169057   2.169   0.000   0.000
 117     65.2275540   526097.     19.01  0.000409   1.000000  -0.000000   0.000000  1.205517  -1.206   0.000   0.000
 118     66.5770290   536981.     18.62  0.000000                                   5.420165   5.420   0.000   0.000
 119     69.0813022   557180.     17.95  0.000010   1.000000  -0.000000  -0.000000  7.109878   7.110   0.000   0.000
 120     72.5006377   584759.     17.10  0.000000                                   5.618893   5.619   0.000   0.000
 121     75.2238755   606723.     16.48  0.000873   1.000000  -0.000000  -0.000000  7.099019   7.099   0.000  -0.000
 
 Polarizability (au  ) xx=    9.48 xy=    0.00 yy=    2.11 xz=    0.00 yz=    0.00 zz=    3.19
 Polarizability (A**3) xx=    1.41 xy=    0.00 yy=    0.31 xz=    0.00 yz=    0.00 zz=    0.47
 
 
 Major CI contributions to CI states
 
State    1  0.0000     CI coeff  CI percent
    Config       1  -0.97262154  0.94599266
    Config       3  -0.05232733  0.00273815
    Config      14   0.05352608  0.00286504
    Config      25   0.15783470  0.02491179
    Config      35  -0.11938077  0.01425177
    Config      74   0.05864031  0.00343869
Total percent printed            0.99419809
  
State    2  0.5518     CI coeff  CI percent
    Config       2   0.97713860  0.95479984
    Config       4   0.04505542  0.00202999
    Config      13  -0.11901843  0.01416539
    Config      28  -0.15001643  0.02250493
    Config      70   0.04750878  0.00225708
Total percent printed            0.99575723
  
State    3  5.6224     CI coeff  CI percent
    Config       1   0.05931148  0.00351785
    Config       3  -0.80653984  0.65050651
    Config       5   0.19076215  0.03639020
    Config       9  -0.46242844  0.21384006
    Config      14   0.26168564  0.06847937
    Config      20   0.09996762  0.00999353
    Config      25   0.08818779  0.00777709
    Config      35   0.07164721  0.00513332
Total percent printed            0.99563792
  
State    4  5.7343     CI coeff  CI percent
    Config       2  -0.06953108  0.00483457
    Config       4   0.77076197  0.59407402
    Config       6  -0.27991317  0.07835138
    Config       7   0.46803246  0.21905438
    Config      13  -0.26818175  0.07192145
    Config      19   0.16469793  0.02712541
    Config      24   0.05009584  0.00250959
Total percent printed            0.99787080
  
State    5  6.3800     CI coeff  CI percent
    Config       3  -0.55883826  0.31230020
    Config       5  -0.43805098  0.19188866
    Config       9   0.54831011  0.30064398
    Config      14  -0.40373232  0.16299978
    Config      20   0.07356492  0.00541180
    Config      25  -0.10613580  0.01126481
    Config      35  -0.11366989  0.01292084
Total percent printed            0.99743007
  
State    6  6.3808     CI coeff  CI percent
    Config       4   0.57598556  0.33175936
    Config       6   0.56982042  0.32469531
    Config       7  -0.45675384  0.20862407
    Config      13   0.32295711  0.10430130
    Config      19   0.13380020  0.01790249
    Config      24  -0.10106597  0.01021433
Total percent printed            0.99749687
  
State    7  7.5054     CI coeff  CI percent
    Config       2   0.05777315  0.00333774
    Config       4   0.15246491  0.02324555
    Config       6  -0.74618143  0.55678673
    Config       7  -0.53923112  0.29077020
    Config      13   0.31413772  0.09868251
    Config      19   0.04555744  0.00207548
    Config      24   0.14202319  0.02017059
Total percent printed            0.99506879
  
State    8  7.7091     CI coeff  CI percent
    Config       3   0.10833323  0.01173609
    Config       5  -0.87593216  0.76725715
    Config       9  -0.40350416  0.16281561
    Config      14   0.20799612  0.04326239
    Config      25   0.08751421  0.00765874
    Config      35   0.06320762  0.00399520
    Config      49   0.04133756  0.00170879
Total percent printed            0.99843397
  
State    9  8.2693     CI coeff  CI percent
    Config      10  -0.91532960  0.83782827
    Config      11   0.31268845  0.09777407
    Config      18   0.09731384  0.00946998
    Config      21  -0.09101899  0.00828446
    Config      37   0.07981079  0.00636976
    Config      47   0.15700231  0.02464973
    Config      48  -0.10947314  0.01198437
    Config      71  -0.05271367  0.00277873
Total percent printed            0.99913936
  
State   10  8.5752     CI coeff  CI percent
    Config       8  -0.93409909  0.87254112
    Config      12   0.30934475  0.09569417
    Config      15   0.05001633  0.00250163
    Config      36  -0.12329682  0.01520211
    Config      42  -0.10821362  0.01171019
Total percent printed            0.99764922
  
State   11  9.1820     CI coeff  CI percent
    Config       8   0.32288484  0.10425462
    Config      12   0.92439414  0.85450452
    Config      22   0.12836837  0.01647844
    Config      26   0.06882402  0.00473675
    Config      42  -0.13697879  0.01876319
Total percent printed            0.99873752
  
State   12  9.4854     CI coeff  CI percent
    Config      10  -0.28775460  0.08280271
    Config      11  -0.94733931  0.89745177
    Config      18   0.06333877  0.00401180
    Config      21  -0.04720256  0.00222808
    Config      32  -0.04478289  0.00200551
    Config      47   0.08567775  0.00734068
Total percent printed            0.99584055
  
State   13 10.6951     CI coeff  CI percent
    Config       1   0.09060551  0.00820936
    Config       5  -0.05071703  0.00257222
    Config       9   0.50802155  0.25808589
    Config      14   0.77432812  0.59958404
    Config      20   0.08078887  0.00652684
    Config      25   0.19030480  0.03621592
    Config      35  -0.08225565  0.00676599
    Config      41   0.21043833  0.04428429
    Config      49  -0.16109199  0.02595063
    Config     106  -0.07180781  0.00515636
Total percent printed            0.99335154
  
State   14 11.3880     CI coeff  CI percent
    Config       2   0.12897101  0.01663352
    Config       7   0.49655804  0.24656989
    Config      13   0.78794613  0.62085910
    Config      19  -0.05594252  0.00312957
    Config      24   0.07164532  0.00513305
    Config      28   0.21627513  0.04677493
    Config      43   0.22451624  0.05040754
    Config      64   0.04379900  0.00191835
    Config     108  -0.07338800  0.00538580
Total percent printed            0.99681176
  
State   15 12.6706     CI coeff  CI percent
    Config      10   0.14727676  0.02169044
    Config      11   0.05099073  0.00260005
    Config      17   0.58634894  0.34380508
    Config      18   0.67374890  0.45393758
    Config      21  -0.29360640  0.08620472
    Config      32  -0.21100791  0.04452434
    Config      40  -0.08292873  0.00687717
    Config      44  -0.04346839  0.00188950
    Config      47   0.06176697  0.00381516
    Config      48   0.05366404  0.00287983
    Config      65  -0.09394987  0.00882658
    Config      71  -0.09178021  0.00842361
    Config      77   0.09940951  0.00988225
Total percent printed            0.99535631
  
State   16 12.8309     CI coeff  CI percent
    Config       8   0.06956612  0.00483944
    Config      15   0.72460042  0.52504577
    Config      22  -0.38754135  0.15018830
    Config      23   0.50502740  0.25505267
    Config      26  -0.24412661  0.05959780
    Config     102  -0.04059288  0.00164778
Total percent printed            0.99637177
  
State   17 13.2339     CI coeff  CI percent
    Config      10  -0.07607245  0.00578702
    Config      16   0.35897722  0.12886465
    Config      17   0.71310685  0.50852139
    Config      18  -0.45562879  0.20759760
    Config      21   0.26299848  0.06916820
    Config      32   0.16154389  0.02609643
    Config      37  -0.04019453  0.00161560
    Config      40  -0.11129890  0.01238745
    Config      44  -0.05170893  0.00267381
    Config      45  -0.04039822  0.00163202
    Config      47  -0.05746317  0.00330202
    Config      48  -0.04372713  0.00191206
    Config      65  -0.09825349  0.00965375
    Config      71   0.05396982  0.00291274
    Config      77   0.12610477  0.01590241
Total percent printed            0.99802713
  
State   18 14.4534     CI coeff  CI percent
    Config      12  -0.12167415  0.01480460
    Config      15   0.53968334  0.29125811
    Config      22   0.67701650  0.45835135
    Config      26   0.47569137  0.22628228
    Config      36   0.08322203  0.00692591
Total percent printed            0.99762223
  
State   19 14.6961     CI coeff  CI percent
    Config      10  -0.05590989  0.00312592
    Config      16  -0.89866991  0.80760760
    Config      17   0.23179103  0.05372708
    Config      18  -0.07744688  0.00599802
    Config      21   0.33343987  0.11118215
    Config      32   0.04448155  0.00197861
    Config      37  -0.05408346  0.00292502
    Config      65  -0.06852918  0.00469625
    Config      71   0.05161178  0.00266378
Total percent printed            0.99390442
  
State   20 14.9073     CI coeff  CI percent
    Config       1  -0.04080786  0.00166528
    Config       3  -0.10370158  0.01075402
    Config      14   0.16862935  0.02843586
    Config      20  -0.82297382  0.67728590
    Config      25  -0.41361901  0.17108068
    Config      35  -0.29430114  0.08661316
    Config      49   0.05207959  0.00271228
    Config      62   0.10519223  0.01106540
    Config      93   0.05268548  0.00277576
Total percent printed            0.99238836
  
State   21 15.5121     CI coeff  CI percent
    Config       4   0.20651243  0.04264738
    Config       6  -0.05326040  0.00283667
    Config      19  -0.92842360  0.86197038
    Config      24  -0.28861422  0.08329817
    Config      28  -0.07150389  0.00511281
Total percent printed            0.99586540
  
State   22 15.5939     CI coeff  CI percent
    Config      10  -0.04854362  0.00235648
    Config      16   0.24223904  0.05867975
    Config      17  -0.10681521  0.01140949
    Config      18   0.41358903  0.17105588
    Config      21   0.82501752  0.68065391
    Config      32  -0.20458488  0.04185497
    Config      37  -0.14077833  0.01981854
    Config      47   0.05265966  0.00277304
    Config      48   0.08031036  0.00644975
Total percent printed            0.99505183
  
State   23 15.6859     CI coeff  CI percent
    Config       4   0.06810799  0.00463870
    Config       6   0.16039570  0.02572678
    Config       7  -0.04434084  0.00196611
    Config      13  -0.08133140  0.00661480
    Config      19  -0.29145869  0.08494817
    Config      24   0.91704313  0.84096810
    Config      68  -0.11421194  0.01304437
    Config      91  -0.10752365  0.01156133
    Config     115   0.04244559  0.00180163
    Config     120   0.05754391  0.00331130
Total percent printed            0.99458129
  
State   24 15.7172     CI coeff  CI percent
    Config       3  -0.06172857  0.00381042
    Config       9   0.11058508  0.01222906
    Config      14  -0.15716351  0.02470037
    Config      20  -0.52828075  0.27908056
    Config      25   0.70009911  0.49013877
    Config      35   0.40716892  0.16578653
    Config      62   0.07155006  0.00511941
    Config      74  -0.06419972  0.00412160
    Config      93  -0.08278526  0.00685340
    Config     121   0.04423036  0.00195632
Total percent printed            0.99379644
  
State   25 16.6901     CI coeff  CI percent
    Config      12   0.07037249  0.00495229
    Config      15   0.38444663  0.14779921
    Config      22  -0.07720616  0.00596079
    Config      23  -0.79172990  0.62683624
    Config      26  -0.37092500  0.13758536
    Config      31  -0.06198794  0.00384250
    Config      36   0.26297549  0.06915611
    Config      42   0.05261250  0.00276807
Total percent printed            0.99890057
  
State   26 17.9422     CI coeff  CI percent
    Config       1  -0.15103833  0.02281258
    Config       3  -0.04148877  0.00172132
    Config      14   0.04371047  0.00191061
    Config      25  -0.41979403  0.17622703
    Config      35   0.67304688  0.45299211
    Config      41   0.04079227  0.00166401
    Config      49  -0.54897979  0.30137881
    Config      74   0.17087571  0.02919851
    Config     118   0.06439502  0.00414672
Total percent printed            0.99205168
  
State   27 18.4337     CI coeff  CI percent
    Config       8   0.05302223  0.00281136
    Config      12  -0.08402696  0.00706053
    Config      15  -0.06946253  0.00482504
    Config      22   0.56171944  0.31552873
    Config      23   0.17743649  0.03148371
    Config      26  -0.72724661  0.52888763
    Config      31   0.07111587  0.00505747
    Config      34   0.11269040  0.01269913
    Config      36  -0.12170909  0.01481310
    Config      42  -0.26143677  0.06834919
    Config      92  -0.05606247  0.00314300
    Config     102   0.06256730  0.00391467
Total percent printed            0.99857355
  
State   28 18.8103     CI coeff  CI percent
    Config      10   0.06471587  0.00418814
    Config      18  -0.30665543  0.09403755
    Config      27   0.24015715  0.05767545
    Config      30   0.23529335  0.05536296
    Config      32  -0.78233578  0.61204927
    Config      37   0.20520667  0.04210978
    Config      44  -0.04604529  0.00212017
    Config      47   0.32822667  0.10773274
    Config      48  -0.05697012  0.00324559
    Config      71   0.12443661  0.01548447
Total percent printed            0.99400614
  
State   29 18.9603     CI coeff  CI percent
    Config      18  -0.11442296  0.01309261
    Config      27  -0.48095232  0.23131514
    Config      30  -0.79721776  0.63555615
    Config      32  -0.28580441  0.08168416
    Config      47   0.11618873  0.01349982
    Config      69   0.06031470  0.00363786
    Config      71   0.04220511  0.00178127
    Config      82   0.12801988  0.01638909
Total percent printed            0.99695611
  
State   30 19.1413     CI coeff  CI percent
    Config      23  -0.08279201  0.00685452
    Config      29  -0.59196529  0.35042291
    Config      31   0.78098412  0.60993619
    Config      36  -0.07246513  0.00525120
    Config      54  -0.08627091  0.00744267
    Config      55  -0.09943128  0.00988658
    Config      58   0.04564769  0.00208371
    Config      84   0.05550870  0.00308122
Total percent printed            0.99495899
  
State   31 19.6797     CI coeff  CI percent
    Config       2  -0.10416744  0.01085086
    Config       7   0.07356809  0.00541226
    Config      13   0.18754254  0.03517221
    Config      24   0.08356153  0.00698253
    Config      28  -0.93051851  0.86586469
    Config      43   0.13228094  0.01749825
    Config      70  -0.22304844  0.04975060
    Config     116   0.06330352  0.00400734
Total percent printed            0.99553874
  
State   32 19.6799     CI coeff  CI percent
    Config      29   0.63374728  0.40163561
    Config      31   0.45190372  0.20421697
    Config      33  -0.33712537  0.11365351
    Config      34  -0.48978257  0.23988696
    Config      36  -0.07716742  0.00595481
    Config      54   0.11637004  0.01354199
    Config      55  -0.08149087  0.00664076
    Config      57  -0.04286207  0.00183716
    Config      85   0.04311604  0.00185899
    Config      87   0.05861915  0.00343621
Total percent printed            0.99266298
  
State   33 19.7070     CI coeff  CI percent
    Config      27   0.49682153  0.24683164
    Config      30  -0.32002187  0.10241400
    Config      37   0.07349232  0.00540112
    Config      40  -0.53986315  0.29145222
    Config      44   0.55698278  0.31022982
    Config      48   0.08228632  0.00677104
    Config      65   0.13772368  0.01896781
    Config      69   0.04578030  0.00209584
    Config      77   0.09015449  0.00812783
Total percent printed            0.99229131
  
State   34 19.7285     CI coeff  CI percent
    Config      22  -0.06457943  0.00417050
    Config      23  -0.06227487  0.00387816
    Config      26   0.08242033  0.00679311
    Config      29   0.46501126  0.21623547
    Config      31   0.35749590  0.12780332
    Config      33   0.44815540  0.20084327
    Config      34   0.64197837  0.41213622
    Config      54   0.08749710  0.00765574
    Config      55  -0.06662995  0.00443955
    Config      56   0.04593138  0.00210969
    Config      57   0.05735875  0.00329003
    Config      87  -0.07379675  0.00544596
Total percent printed            0.99480102
  
State   35 19.7568     CI coeff  CI percent
    Config      18   0.04068426  0.00165521
    Config      21   0.04666679  0.00217779
    Config      27   0.66420559  0.44116907
    Config      30  -0.42056703  0.17687663
    Config      32   0.09518779  0.00906072
    Config      37   0.07118880  0.00506785
    Config      40   0.40570918  0.16459994
    Config      44  -0.41336744  0.17087264
    Config      47  -0.04926910  0.00242744
    Config      65  -0.10002181  0.01000436
    Config      69   0.05716312  0.00326762
    Config      77  -0.06691936  0.00447820
    Config      82   0.04771690  0.00227690
Total percent printed            0.99393436
  
State   36 20.3530     CI coeff  CI percent
    Config      22  -0.04518950  0.00204209
    Config      26   0.06065487  0.00367901
    Config      33  -0.81494024  0.66412759
    Config      34   0.54744939  0.29970083
    Config      42  -0.05787742  0.00334980
    Config      56  -0.12126838  0.01470602
    Config      57   0.07771780  0.00604006
    Config      92  -0.05594121  0.00312942
Total percent printed            0.99677482
  
State   37 21.8626     CI coeff  CI percent
    Config      38  -0.95303398  0.90827376
    Config      41   0.04131218  0.00170670
    Config      52   0.07323566  0.00536346
    Config      59  -0.07534959  0.00567756
    Config      62   0.04151099  0.00172316
    Config      63  -0.08318298  0.00691941
    Config      72   0.08580026  0.00736169
    Config      75  -0.06698358  0.00448680
    Config      79  -0.05571775  0.00310447
    Config      88   0.18555735  0.03443153
    Config      90   0.10277475  0.01056265
    Config      94   0.05913750  0.00349724
Total percent printed            0.99310843
  
State   38 22.5150     CI coeff  CI percent
    Config      39  -0.96276896  0.92692407
    Config      43  -0.14837666  0.02201563
    Config      64  -0.08274656  0.00684699
    Config      66   0.07762966  0.00602636
    Config      78  -0.07522191  0.00565834
    Config      81  -0.16502200  0.02723226
Total percent printed            0.99470366
  
State   39 22.5947     CI coeff  CI percent
    Config      21  -0.11158655  0.01245156
    Config      27   0.12623923  0.01593634
    Config      32  -0.23144418  0.05356641
    Config      37  -0.80616603  0.64990366
    Config      40  -0.07146120  0.00510670
    Config      47  -0.17701276  0.03133352
    Config      48  -0.45272311  0.20495821
    Config      71  -0.13025406  0.01696612
    Config      89  -0.04031752  0.00162550
    Config     109   0.05529037  0.00305703
Total percent printed            0.99490505
  
State   40 22.7902     CI coeff  CI percent
    Config       8  -0.10461862  0.01094506
    Config      15  -0.14840293  0.02202343
    Config      23   0.23224954  0.05393985
    Config      31   0.13695277  0.01875606
    Config      36   0.93320450  0.87087064
    Config      42  -0.12750949  0.01625867
    Config      85  -0.04045331  0.00163647
Total percent printed            0.99443018
  
State   41 23.2789     CI coeff  CI percent
    Config       9   0.09775162  0.00955538
    Config      14   0.13037809  0.01699845
    Config      38  -0.09701329  0.00941158
    Config      41  -0.87708436  0.76927697
    Config      49  -0.09083898  0.00825172
    Config      51  -0.10335472  0.01068220
    Config      52  -0.25263424  0.06382406
    Config      59   0.12844349  0.01649773
    Config      73   0.06820585  0.00465204
    Config      74  -0.11155441  0.01244439
    Config      75  -0.06464178  0.00417856
    Config      79   0.07386111  0.00545546
    Config      90  -0.08668814  0.00751483
    Config      93   0.19447576  0.03782082
    Config      94   0.09647397  0.00930723
    Config      97   0.06187748  0.00382882
    Config     106  -0.07300603  0.00532988
Total percent printed            0.99503011
  
State   42 23.5226     CI coeff  CI percent
    Config      10   0.09350491  0.00874317
    Config      18   0.05666109  0.00321048
    Config      21   0.14800205  0.02190461
    Config      27  -0.06413056  0.00411273
    Config      37   0.48266179  0.23296240
    Config      40  -0.09387911  0.00881329
    Config      47  -0.26157468  0.06842131
    Config      48  -0.73199719  0.53581988
    Config      71  -0.30135390  0.09081417
    Config      89   0.11339130  0.01285759
    Config     101   0.08262322  0.00682660
Total percent printed            0.99448622
  
State   43 24.6492     CI coeff  CI percent
    Config       7   0.13627717  0.01857147
    Config      13   0.19317642  0.03731713
    Config      28  -0.09227659  0.00851497
    Config      39   0.16927493  0.02865400
    Config      43  -0.92062338  0.84754740
    Config      53  -0.13417439  0.01800277
    Config      68  -0.04115208  0.00169349
    Config      70   0.05989260  0.00358712
    Config      78   0.08713632  0.00759274
    Config      81  -0.13103387  0.01716987
    Config     108  -0.08988586  0.00807947
Total percent printed            0.99673043
  
State   44 24.8195     CI coeff  CI percent
    Config       8   0.05864466  0.00343920
    Config      12  -0.13552177  0.01836615
    Config      22  -0.18850575  0.03553442
    Config      23  -0.13540025  0.01833323
    Config      26   0.16428513  0.02698960
    Config      34  -0.11143454  0.01241766
    Config      36  -0.05748866  0.00330495
    Config      42  -0.91944240  0.84537432
    Config      85   0.07061549  0.00498655
    Config      92  -0.14115288  0.01992414
    Config     102  -0.08152197  0.00664583
Total percent printed            0.99531603
  
State   45 24.8763     CI coeff  CI percent
    Config      17  -0.09985444  0.00997091
    Config      40  -0.21837866  0.04768924
    Config      44  -0.13226078  0.01749291
    Config      45  -0.92726115  0.85981325
    Config      50   0.04642521  0.00215530
    Config      65  -0.17834783  0.03180795
    Config      77  -0.12429543  0.01544935
    Config      95   0.11294552  0.01275669
Total percent printed            0.99713560
  
State   46 25.5835     CI coeff  CI percent
    Config      46  -0.99999871  0.99999742
Total percent printed            0.99999742
  
State   47 26.2435     CI coeff  CI percent
    Config      34  -0.06028493  0.00363427
    Config      56  -0.23768863  0.05649588
    Config      57   0.66891928  0.44745300
    Config      60   0.69628482  0.48481255
    Config      87  -0.06234742  0.00388720
Total percent printed            0.99628290
  
State   48 26.2436     CI coeff  CI percent
    Config      10  -0.14657285  0.02148360
    Config      18   0.04878632  0.00238010
    Config      21  -0.05057161  0.00255749
    Config      32  -0.24654013  0.06078203
    Config      37   0.10622569  0.01128390
    Config      40   0.06669383  0.00444807
    Config      44   0.04446104  0.00197678
    Config      45  -0.05714986  0.00326611
    Config      47  -0.73619162  0.54197810
    Config      48   0.08210422  0.00674110
    Config      50   0.28575729  0.08165723
    Config      65   0.04369558  0.00190930
    Config      71   0.50397932  0.25399515
    Config     103  -0.04657847  0.00216955
Total percent printed            0.99662852
  
State   49 26.4107     CI coeff  CI percent
    Config      14  -0.05225522  0.00273061
    Config      38  -0.09294973  0.00863965
    Config      41   0.24795299  0.06148069
    Config      51   0.22300229  0.04973002
    Config      52  -0.75650552  0.57230060
    Config      59   0.37842778  0.14320758
    Config      62  -0.13963342  0.01949749
    Config      63  -0.24384178  0.05945881
    Config      72  -0.21798888  0.04751915
    Config      75   0.06234100  0.00388640
    Config      88  -0.05185946  0.00268940
    Config      97   0.12318148  0.01517368
    Config      99   0.04644145  0.00215681
Total percent printed            0.98847090
  
State   50 26.5584     CI coeff  CI percent
    Config      29   0.05690456  0.00323813
    Config      31   0.05471247  0.00299345
    Config      54  -0.30578580  0.09350495
    Config      55   0.64671285  0.41823751
    Config      58   0.68961381  0.47556720
    Config      84  -0.06671543  0.00445095
Total percent printed            0.99799220
  
State   51 26.6349     CI coeff  CI percent
    Config      28  -0.04403745  0.00193930
    Config      53   0.43493497  0.18916843
    Config      61  -0.17026445  0.02898998
    Config      64   0.63725844  0.40609832
    Config      66   0.58922548  0.34718666
    Config      70   0.13358163  0.01784405
Total percent printed            0.99122674
  
State   52 26.7618     CI coeff  CI percent
    Config       9  -0.04313915  0.00186099
    Config      14  -0.05117044  0.00261841
    Config      38  -0.06933267  0.00480702
    Config      41   0.20757166  0.04308600
    Config      51  -0.71919528  0.51724185
    Config      52  -0.26151130  0.06838816
    Config      59   0.14081093  0.01982772
    Config      62   0.11649950  0.01357213
    Config      63   0.53399275  0.28514826
    Config      72   0.05387278  0.00290228
    Config      73   0.06981798  0.00487455
    Config      74  -0.11888640  0.01413398
    Config      75  -0.04870580  0.00237226
    Config      97   0.04403994  0.00193952
    Config      99  -0.10931389  0.01194953
Total percent printed            0.99472263
  
State   53 26.8424     CI coeff  CI percent
    Config      17  -0.09682540  0.00937516
    Config      40  -0.52014358  0.27054934
    Config      44  -0.58202083  0.33874825
    Config      45   0.17291383  0.02989919
    Config      47  -0.13291496  0.01766639
    Config      48   0.07636664  0.00583186
    Config      50  -0.40453925  0.16365200
    Config      65   0.23303888  0.05430712
    Config      71   0.11806591  0.01393956
    Config      77   0.06901026  0.00476242
    Config      86  -0.06314264  0.00398699
    Config      95   0.28392569  0.08061380
Total percent printed            0.99333208
  
State   54 27.0038     CI coeff  CI percent
    Config      17  -0.05407515  0.00292412
    Config      40  -0.36706997  0.13474036
    Config      44  -0.18227143  0.03322287
    Config      45   0.30764491  0.09464539
    Config      47   0.08246231  0.00680003
    Config      50   0.59868605  0.35842499
    Config      65  -0.49132446  0.24139973
    Config      71  -0.04037073  0.00162980
    Config      77  -0.31676516  0.10034017
    Config      89  -0.05711945  0.00326263
    Config      95   0.14083660  0.01983495
Total percent printed            0.99722504
  
State   55 27.7475     CI coeff  CI percent
    Config      13  -0.05945776  0.00353522
    Config      28  -0.07506979  0.00563547
    Config      43   0.13638817  0.01860173
    Config      53  -0.81784912  0.66887719
    Config      61  -0.05828479  0.00339712
    Config      64   0.43694881  0.19092426
    Config      68  -0.06186714  0.00382754
    Config      70   0.30839380  0.09510673
    Config     108   0.04417405  0.00195135
    Config     116   0.04459014  0.00198828
Total percent printed            0.99384490
  
State   56 28.2264     CI coeff  CI percent
    Config      20  -0.05690553  0.00323824
    Config      51  -0.57395516  0.32942453
    Config      52   0.08952592  0.00801489
    Config      59  -0.12788710  0.01635511
    Config      62  -0.50878925  0.25886651
    Config      63  -0.54239722  0.29419475
    Config      72  -0.14051528  0.01974454
    Config      73   0.17050922  0.02907339
    Config      74   0.15377027  0.02364530
    Config      88  -0.05529844  0.00305792
    Config      99   0.06025944  0.00363120
    Config     114  -0.04860684  0.00236262
Total percent printed            0.99160900
  
State   57 28.2692     CI coeff  CI percent
    Config      29  -0.11568932  0.01338402
    Config      31   0.06266863  0.00392736
    Config      54   0.78745347  0.62008296
    Config      55   0.54793869  0.30023681
    Config      58  -0.14468065  0.02093249
    Config      84   0.18972491  0.03599554
    Config     100   0.05492066  0.00301628
Total percent printed            0.99757546
  
State   58 28.3202     CI coeff  CI percent
    Config      39   0.05635002  0.00317533
    Config      53  -0.05651321  0.00319374
    Config      61  -0.94198775  0.88734092
    Config      64  -0.18800988  0.03534771
    Config      70  -0.07416008  0.00549972
    Config      76   0.08064079  0.00650294
    Config      80   0.13396811  0.01794745
    Config      83   0.17547566  0.03079171
    Config      91   0.06496473  0.00422042
Total percent printed            0.99401993
  
State   59 28.4739     CI coeff  CI percent
    Config      10  -0.04133177  0.00170832
    Config      32  -0.07308748  0.00534178
    Config      44   0.19843260  0.03937550
    Config      45   0.09023168  0.00814176
    Config      47  -0.18202780  0.03313412
    Config      48   0.06737066  0.00453881
    Config      50  -0.60459130  0.36553064
    Config      65  -0.61441874  0.37751038
    Config      67   0.05522556  0.00304986
    Config      69  -0.18490558  0.03419008
    Config      71   0.06748321  0.00455398
    Config      77  -0.31963667  0.10216760
    Config      82   0.10144825  0.01029175
    Config      86   0.04547371  0.00206786
    Config      95  -0.05145073  0.00264718
    Config     103   0.04471325  0.00199927
Total percent printed            0.99624888
  
State   60 28.4976     CI coeff  CI percent
    Config      50   0.13190825  0.01739979
    Config      65   0.14150173  0.02002274
    Config      67   0.25810391  0.06661763
    Config      69  -0.82438170  0.67960519
    Config      77   0.07721298  0.00596184
    Config      82   0.45278281  0.20501227
Total percent printed            0.99461946
  
State   61 28.5268     CI coeff  CI percent
    Config      33   0.11482531  0.01318485
    Config      56  -0.92117562  0.84856453
    Config      57  -0.35074375  0.12302118
    Config      87  -0.10343351  0.01069849
    Config     102   0.04304138  0.00185256
Total percent printed            0.99732161
  
State   62 28.7060     CI coeff  CI percent
    Config      29  -0.11286692  0.01273894
    Config      31  -0.10259043  0.01052480
    Config      54   0.50479007  0.25481302
    Config      55  -0.45613117  0.20805565
    Config      58   0.64043321  0.41015470
    Config      84  -0.31803383  0.10114552
Total percent printed            0.99743262
  
State   63 28.8026     CI coeff  CI percent
    Config      52  -0.41347729  0.17096347
    Config      59  -0.86462578  0.74757774
    Config      62   0.09996133  0.00999227
    Config      72  -0.17104445  0.02925621
    Config      73  -0.11798492  0.01392044
    Config      74  -0.09465002  0.00895863
    Config      75  -0.05891377  0.00347083
    Config      79  -0.05279172  0.00278697
    Config     111  -0.07240818  0.00524294
Total percent printed            0.99216949
  
State   64 29.0958     CI coeff  CI percent
    Config      20  -0.08217774  0.00675318
    Config      38  -0.05707367  0.00325740
    Config      51   0.24280422  0.05895389
    Config      59  -0.13247160  0.01754872
    Config      62  -0.77377984  0.59873524
    Config      63   0.45509889  0.20711500
    Config      72   0.17091120  0.02921064
    Config      73   0.14191234  0.02013911
    Config      74  -0.13947725  0.01945390
    Config      75   0.15556947  0.02420186
    Config      88   0.04261923  0.00181640
    Config      94  -0.04330985  0.00187574
    Config     107   0.04629116  0.00214287
Total percent printed            0.99120397
  
State   65 29.1825     CI coeff  CI percent
    Config      33  -0.06754617  0.00456248
    Config      34   0.04244615  0.00180168
    Config      56   0.27135539  0.07363375
    Config      57  -0.59746669  0.35696644
    Config      60   0.64199562  0.41215838
    Config      87  -0.38488165  0.14813388
Total percent printed            0.99725661
  
State   66 29.5909     CI coeff  CI percent
    Config       6   0.04691384  0.00220091
    Config      24   0.07738869  0.00598901
    Config      43  -0.04539094  0.00206034
    Config      53  -0.10454349  0.01092934
    Config      61  -0.04362234  0.00190291
    Config      64   0.05240410  0.00274619
    Config      66   0.09933333  0.00986711
    Config      68   0.92655369  0.85850174
    Config      70  -0.12306229  0.01514433
    Config      76   0.16462677  0.02710197
    Config      78  -0.04004729  0.00160379
    Config      80  -0.15676637  0.02457570
    Config      91  -0.15140641  0.02292390
    Config      96   0.08470525  0.00717498
    Config     115   0.06606052  0.00436399
Total percent printed            0.99708620
  
State   67 30.1779     CI coeff  CI percent
    Config      67   0.95879479  0.91928744
    Config      69   0.26841469  0.07204645
    Config      82  -0.05578421  0.00311188
    Config     101   0.05805321  0.00337018
Total percent printed            0.99781594
  
State   68 31.2724     CI coeff  CI percent
    Config       2  -0.04173793  0.00174206
    Config      28  -0.10213772  0.01043211
    Config      39  -0.08428370  0.00710374
    Config      53   0.31445593  0.09888253
    Config      61  -0.09888091  0.00977743
    Config      64   0.26666211  0.07110868
    Config      66  -0.67565809  0.45651385
    Config      68   0.15500015  0.02402505
    Config      70   0.51484895  0.26506944
    Config      76   0.05648630  0.00319070
    Config      78   0.20940373  0.04384992
    Config     112  -0.04032369  0.00162600
    Config     116   0.06994225  0.00489192
Total percent printed            0.99821343
  
State   69 31.9113     CI coeff  CI percent
    Config       9  -0.16794464  0.02820540
    Config      14  -0.12117533  0.01468346
    Config      25   0.14308804  0.02047419
    Config      35  -0.42834817  0.18348216
    Config      49  -0.75429441  0.56896006
    Config      52   0.09353768  0.00874930
    Config      59   0.04634454  0.00214782
    Config      63  -0.05120509  0.00262196
    Config      72  -0.15218298  0.02315966
    Config      74  -0.31655710  0.10020840
    Config      93  -0.19117225  0.03654683
    Config      97  -0.05308900  0.00281844
    Config     121   0.04802093  0.00230601
Total percent printed            0.99436368
  
State   70 32.3768     CI coeff  CI percent
    Config      35  -0.05197410  0.00270131
    Config      38   0.13648519  0.01862821
    Config      41   0.04213187  0.00177509
    Config      49  -0.08932293  0.00797859
    Config      52  -0.17719666  0.03139866
    Config      59  -0.04454001  0.00198381
    Config      63  -0.23783969  0.05656772
    Config      72   0.76143440  0.57978234
    Config      73   0.09159554  0.00838974
    Config      74  -0.12090276  0.01461748
    Config      75  -0.31715824  0.10058935
    Config      79  -0.09637547  0.00928823
    Config      88   0.28644442  0.08205041
    Config      90  -0.06143161  0.00377384
    Config      94  -0.15074748  0.02272480
    Config      97   0.13830400  0.01912800
    Config      99   0.17898256  0.03203476
Total percent printed            0.99341233
  
State   71 32.7733     CI coeff  CI percent
    Config      28   0.11696279  0.01368029
    Config      39  -0.09046836  0.00818452
    Config      43  -0.12106634  0.01465706
    Config      64   0.50728590  0.25733898
    Config      66  -0.39044469  0.15244706
    Config      68  -0.08882191  0.00788933
    Config      70  -0.66814469  0.44641733
    Config      78  -0.18507076  0.03425119
    Config      80   0.04626405  0.00214036
    Config      81   0.22054170  0.04863864
    Config     112  -0.07447947  0.00554719
Total percent printed            0.99119196
  
State   72 33.4116     CI coeff  CI percent
    Config      61   0.05080322  0.00258097
    Config      68  -0.10510689  0.01104746
    Config      70   0.07060997  0.00498577
    Config      76   0.89429210  0.79975835
    Config      78  -0.17814002  0.03173387
    Config      83  -0.23820064  0.05673955
    Config      91   0.24607763  0.06055420
    Config      96  -0.15650105  0.02449258
    Config     120   0.04908521  0.00240936
Total percent printed            0.99430209
  
State   73 33.4206     CI coeff  CI percent
    Config      20  -0.04046476  0.00163740
    Config      35  -0.05604026  0.00314051
    Config      41  -0.08140607  0.00662695
    Config      49  -0.04460490  0.00198960
    Config      51  -0.13004367  0.01691136
    Config      52  -0.07268026  0.00528242
    Config      59   0.07176110  0.00514966
    Config      62  -0.17576654  0.03089388
    Config      72   0.17074443  0.02915366
    Config      73  -0.89739667  0.80532078
    Config      74   0.17941507  0.03218977
    Config      75   0.18266682  0.03336717
    Config      79  -0.05417104  0.00293450
    Config      93  -0.11049588  0.01220934
    Config      97   0.05280260  0.00278811
Total percent printed            0.98959509
  
State   74 34.0696     CI coeff  CI percent
    Config       1  -0.06934284  0.00480843
    Config      25  -0.09798052  0.00960018
    Config      35   0.16635013  0.02767237
    Config      41   0.13284893  0.01764884
    Config      49   0.11523892  0.01328001
    Config      52   0.13304824  0.01770184
    Config      59   0.06476738  0.00419481
    Config      62  -0.11266694  0.01269384
    Config      63  -0.06999924  0.00489989
    Config      72  -0.19055445  0.03631100
    Config      73  -0.32347674  0.10463720
    Config      74  -0.57934008  0.33563493
    Config      75  -0.43060896  0.18542408
    Config      79   0.30752484  0.09457153
    Config      93   0.29195514  0.08523781
    Config      94  -0.09385682  0.00880910
    Config      97  -0.11560109  0.01336361
    Config      99   0.11207558  0.01256093
    Config     118   0.07523085  0.00565968
Total percent printed            0.99471008
  
State   75 35.0312     CI coeff  CI percent
    Config      25   0.04759135  0.00226494
    Config      35  -0.07570728  0.00573159
    Config      38   0.04092613  0.00167495
    Config      51   0.08302644  0.00689339
    Config      59   0.06606968  0.00436520
    Config      62  -0.16752585  0.02806491
    Config      63   0.17451962  0.03045710
    Config      72  -0.23412393  0.05481401
    Config      73  -0.04469381  0.00199754
    Config      74   0.36438907  0.13277939
    Config      75  -0.75512138  0.57020831
    Config      79  -0.31827593  0.10129957
    Config      88   0.05016652  0.00251668
    Config      93  -0.14955261  0.02236598
    Config      99  -0.09689004  0.00938768
    Config     104   0.07908944  0.00625514
    Config     107   0.06700031  0.00448904
    Config     119  -0.05653091  0.00319574
Total percent printed            0.98876116
  
State   76 35.0830     CI coeff  CI percent
    Config      17   0.22072121  0.04871785
    Config      40   0.11421293  0.01304459
    Config      44   0.17645369  0.03113590
    Config      65   0.39351911  0.15485729
    Config      77  -0.71115970  0.50574812
    Config      89   0.06502282  0.00422797
    Config      95   0.48371337  0.23397863
    Config     103   0.06842486  0.00468196
Total percent printed            0.99639232
  
State   77 35.4971     CI coeff  CI percent
    Config      39  -0.05383521  0.00289823
    Config      61  -0.10345104  0.01070212
    Config      68  -0.13620837  0.01855272
    Config      78   0.17371982  0.03017857
    Config      80  -0.87540979  0.76634229
    Config      81   0.29278516  0.08572315
    Config      83   0.05278233  0.00278597
    Config      91   0.14414413  0.02077753
    Config      98   0.20672623  0.04273574
    Config     105  -0.05807791  0.00337304
    Config     110  -0.09242041  0.00854153
    Config     117   0.04469505  0.00199765
Total percent printed            0.99460855
  
State   78 35.6042     CI coeff  CI percent
    Config      14   0.04374340  0.00191348
    Config      25  -0.07228180  0.00522466
    Config      35   0.10674713  0.01139495
    Config      49   0.12773471  0.01631616
    Config      51  -0.04981392  0.00248143
    Config      52   0.08669888  0.00751670
    Config      63  -0.05704037  0.00325360
    Config      72  -0.16664865  0.02777177
    Config      74  -0.33613288  0.11298531
    Config      75   0.18369097  0.03374237
    Config      79  -0.71392623  0.50969066
    Config      88   0.22031058  0.04853675
    Config      90  -0.45208225  0.20437836
    Config      99   0.04686731  0.00219655
    Config     121  -0.06481633  0.00420116
Total percent printed            0.99160392
  
State   79 35.8944     CI coeff  CI percent
    Config      28  -0.06565917  0.00431113
    Config      39   0.09574008  0.00916616
    Config      53   0.07435447  0.00552859
    Config      66  -0.09846738  0.00969583
    Config      70   0.20159061  0.04063877
    Config      76  -0.14591371  0.02129081
    Config      78  -0.89634703  0.80343800
    Config      80  -0.22324454  0.04983812
    Config      81  -0.13378095  0.01789734
    Config      83   0.13364544  0.01786110
    Config      91  -0.06476022  0.00419389
    Config      98   0.05467239  0.00298907
    Config     105   0.06295073  0.00396279
    Config     116   0.04590651  0.00210741
Total percent printed            0.99291902
  
State   80 36.5541     CI coeff  CI percent
    Config      38   0.04464550  0.00199322
    Config      41  -0.05608822  0.00314589
    Config      59   0.06383968  0.00407550
    Config      63  -0.04823101  0.00232623
    Config      72   0.10832972  0.01173533
    Config      74  -0.16840228  0.02835933
    Config      79  -0.48946107  0.23957214
    Config      88  -0.33787323  0.11415832
    Config      90   0.70087562  0.49122664
    Config      93   0.21273876  0.04525778
    Config      94   0.05924545  0.00351002
    Config      97  -0.17947228  0.03221030
    Config     104   0.09164065  0.00839801
    Config     106   0.04673343  0.00218401
    Config     111   0.06765428  0.00457710
Total percent printed            0.99272982
  
State   81 37.0961     CI coeff  CI percent
    Config      61  -0.13399505  0.01795467
    Config      76  -0.22402348  0.05018652
    Config      78  -0.08365580  0.00699829
    Config      81  -0.10022342  0.01004473
    Config      83  -0.78566908  0.61727590
    Config      91   0.30060027  0.09036052
    Config      96   0.44600442  0.19891994
Total percent printed            0.99174058
  
State   82 37.3105     CI coeff  CI percent
    Config      10   0.07154818  0.00511914
    Config      18   0.14224324  0.02023314
    Config      32   0.21831745  0.04766251
    Config      37  -0.06150632  0.00378303
    Config      47   0.32872229  0.10805835
    Config      48  -0.36491274  0.13316131
    Config      65  -0.05965461  0.00355867
    Config      71   0.68521644  0.46952157
    Config      86  -0.15285997  0.02336617
    Config      89   0.40995714  0.16806486
    Config     101  -0.10326143  0.01066292
    Config     103  -0.04792433  0.00229674
Total percent printed            0.99548841
  
State   83 37.4024     CI coeff  CI percent
    Config      28  -0.07150457  0.00511290
    Config      39  -0.08797821  0.00774017
    Config      43  -0.13209947  0.01745027
    Config      64  -0.12082509  0.01459870
    Config      66   0.10026871  0.01005381
    Config      68   0.04247395  0.00180404
    Config      70   0.21366824  0.04565412
    Config      78  -0.17329978  0.03003281
    Config      80   0.25097777  0.06298984
    Config      81   0.86678419  0.75131483
    Config      83  -0.10376224  0.01076660
    Config     105  -0.15276902  0.02333837
    Config     108   0.05810103  0.00337573
    Config     112   0.07803842  0.00608999
Total percent printed            0.99032219
  
State   84 37.6005     CI coeff  CI percent
    Config      25  -0.04471356  0.00199930
    Config      41   0.06907774  0.00477173
    Config      49   0.08503092  0.00723026
    Config      51   0.04007548  0.00160604
    Config      63  -0.06256840  0.00391480
    Config      72   0.22027743  0.04852215
    Config      74  -0.20156559  0.04062869
    Config      75  -0.10791081  0.01164474
    Config      79   0.04135868  0.00171054
    Config      88  -0.34840791  0.12138807
    Config      90  -0.16628096  0.02764936
    Config      93  -0.28306003  0.08012298
    Config      94   0.77927981  0.60727703
    Config      97   0.09116861  0.00831172
    Config      99  -0.13467012  0.01813604
    Config     104   0.06415946  0.00411644
    Config     106  -0.06099404  0.00372027
Total percent printed            0.99275017
  
State   85 37.8345     CI coeff  CI percent
    Config      10  -0.04166919  0.00173632
    Config      18  -0.06863229  0.00471039
    Config      32  -0.09215453  0.00849246
    Config      37  -0.04692557  0.00220201
    Config      40  -0.04639407  0.00215241
    Config      47  -0.14107888  0.01990325
    Config      48   0.22052576  0.04863161
    Config      50   0.05313067  0.00282287
    Config      71  -0.28142488  0.07919996
    Config      86  -0.64920265  0.42146409
    Config      89   0.61552989  0.37887705
    Config     103   0.12949997  0.01677024
    Config     109  -0.10247692  0.01050152
Total percent printed            0.99746417
  
State   86 37.8673     CI coeff  CI percent
    Config      29  -0.04077565  0.00166265
    Config      36   0.04680181  0.00219041
    Config      42   0.05721933  0.00327405
    Config      84  -0.11878708  0.01411037
    Config      85   0.97829045  0.95705220
    Config     100   0.12089256  0.01461501
    Config     102   0.05948356  0.00353829
Total percent printed            0.99644299
  
State   87 38.3129     CI coeff  CI percent
    Config       6   0.04538702  0.00205998
    Config      24   0.08414501  0.00708038
    Config      61   0.14841147  0.02202596
    Config      68   0.13625907  0.01856653
    Config      76  -0.06289473  0.00395575
    Config      80   0.04185066  0.00175148
    Config      83   0.42101546  0.17725402
    Config      91   0.77841902  0.60593617
    Config      96   0.24422782  0.05964723
    Config      98  -0.30593004  0.09359319
    Config     110   0.04132653  0.00170788
    Config     120   0.05054134  0.00255443
Total percent printed            0.99613300
  
State   88 38.6559     CI coeff  CI percent
    Config      37  -0.05435392  0.00295435
    Config      40  -0.04974789  0.00247485
    Config      44  -0.06669289  0.00444794
    Config      47  -0.05348707  0.00286087
    Config      48   0.11510627  0.01324945
    Config      50   0.04051616  0.00164156
    Config      71  -0.10607385  0.01125166
    Config      77   0.04821338  0.00232453
    Config      86   0.73778471  0.54432627
    Config      89   0.62149544  0.38625658
    Config     101  -0.06133609  0.00376212
    Config     103   0.06264302  0.00392415
    Config     109  -0.12429536  0.01544934
Total percent printed            0.99492367
  
State   89 39.2757     CI coeff  CI percent
    Config      14  -0.05747081  0.00330289
    Config      25   0.04649101  0.00216141
    Config      35  -0.05181464  0.00268476
    Config      38  -0.15573645  0.02425384
    Config      41   0.06491357  0.00421377
    Config      49  -0.09326020  0.00869746
    Config      52   0.10306081  0.01062153
    Config      59  -0.05688905  0.00323636
    Config      72   0.04848553  0.00235085
    Config      74   0.07334227  0.00537909
    Config      79  -0.11190373  0.01252245
    Config      88  -0.60296776  0.36357012
    Config      90  -0.27481347  0.07552244
    Config      93   0.32547149  0.10593169
    Config      94  -0.23416664  0.05483402
    Config      97   0.54922371  0.30164668
    Config      99   0.07717897  0.00595659
    Config     104  -0.04347073  0.00188970
    Config     121   0.05005991  0.00250599
Total percent printed            0.99128166
  
State   90 39.4390     CI coeff  CI percent
    Config      31  -0.06722881  0.00451971
    Config      42  -0.09225577  0.00851113
    Config      55  -0.13348387  0.01781794
    Config      58   0.18574329  0.03450057
    Config      60  -0.05251146  0.00275745
    Config      84   0.58130312  0.33791332
    Config      85   0.07132887  0.00508781
    Config      87  -0.15495995  0.02401259
    Config      92   0.72794547  0.52990460
    Config     102  -0.17265020  0.02980809
Total percent printed            0.99483322
  
State   91 39.4832     CI coeff  CI percent
    Config      31  -0.08321605  0.00692491
    Config      42   0.08396342  0.00704986
    Config      55  -0.17500589  0.03062706
    Config      58   0.22909329  0.05248374
    Config      84   0.70885925  0.50248144
    Config      85   0.08547086  0.00730527
    Config      87   0.12506664  0.01564167
    Config      92  -0.59221610  0.35071991
    Config     102   0.14894434  0.02218442
Total percent printed            0.99541827
  
State   92 40.2697     CI coeff  CI percent
    Config      30   0.16936723  0.02868526
    Config      67  -0.08054400  0.00648734
    Config      69   0.45241991  0.20468378
    Config      82   0.87182108  0.76007200
Total percent printed            0.99992837
  
State   93 40.5006     CI coeff  CI percent
    Config      34   0.12958866  0.01679322
    Config      57  -0.24187819  0.05850506
    Config      60   0.31228450  0.09752161
    Config      87   0.88673104  0.78629194
    Config      92   0.19671361  0.03869625
Total percent printed            0.99780808
  
State   94 40.7119     CI coeff  CI percent
    Config      14   0.06509179  0.00423694
    Config      25  -0.07962620  0.00634033
    Config      35   0.05989005  0.00358682
    Config      38  -0.08691755  0.00755466
    Config      41  -0.15413372  0.02375721
    Config      49   0.11238897  0.01263128
    Config      63   0.09657337  0.00932641
    Config      72   0.05168772  0.00267162
    Config      74  -0.08053064  0.00648518
    Config      75  -0.05631941  0.00317188
    Config      88  -0.35379539  0.12517118
    Config      93  -0.62350231  0.38875514
    Config      94  -0.32209747  0.10374678
    Config      97  -0.19225613  0.03696242
    Config      99   0.49710383  0.24711222
    Config     104  -0.04608293  0.00212364
    Config     107  -0.04498946  0.00202405
    Config     118   0.06060310  0.00367274
Total percent printed            0.98933049
  
State   95 45.5657     CI coeff  CI percent
    Config      61  -0.09453578  0.00893701
    Config      68   0.05205524  0.00270975
    Config      76  -0.17296689  0.02991755
    Config      80  -0.18424122  0.03394483
    Config      83  -0.26747088  0.07154067
    Config      91   0.04793197  0.00229747
    Config      96  -0.57260225  0.32787333
    Config      98  -0.71572373  0.51226046
    Config     117  -0.08765588  0.00768355
Total percent printed            0.99716463
  
State   96 45.9505     CI coeff  CI percent
    Config      85  -0.11119269  0.01236381
    Config     100   0.98460570  0.96944838
    Config     102  -0.10598480  0.01123278
Total percent printed            0.99304497
  
State   97 46.4011     CI coeff  CI percent
    Config      17  -0.06626213  0.00439067
    Config      40   0.16998046  0.02889336
    Config      44   0.19485284  0.03796763
    Config      65  -0.24172765  0.05843226
    Config      77   0.46097259  0.21249572
    Config      95   0.77025817  0.59329765
    Config     101   0.20980505  0.04401816
    Config     103   0.05356294  0.00286899
    Config     109   0.12093692  0.01462574
Total percent printed            0.99699018
  
State   98 46.4630     CI coeff  CI percent
    Config      40   0.04850970  0.00235319
    Config      44   0.05957712  0.00354943
    Config      65  -0.04735489  0.00224249
    Config      67   0.04726808  0.00223427
    Config      71  -0.10041222  0.01008261
    Config      77   0.07155795  0.00512054
    Config      89  -0.07010774  0.00491509
    Config      95   0.21635216  0.04680826
    Config     101  -0.82032249  0.67292899
    Config     103  -0.41451016  0.17181867
    Config     109  -0.27051322  0.07317740
Total percent printed            0.99523094
  
State   99 46.8601     CI coeff  CI percent
    Config       6  -0.04958831  0.00245900
    Config      24  -0.08701867  0.00757225
    Config      68  -0.17112190  0.02928270
    Config      76   0.22185575  0.04921997
    Config      80  -0.16891336  0.02853172
    Config      83   0.09439319  0.00891008
    Config      91  -0.40758183  0.16612295
    Config      96   0.60555885  0.36670152
    Config      98  -0.57959281  0.33592782
    Config     110   0.06344894  0.00402577
Total percent printed            0.99875378
  
State  100 47.9211     CI coeff  CI percent
    Config      18   0.06035152  0.00364231
    Config      37   0.08665648  0.00750935
    Config      48  -0.04152375  0.00172422
    Config      77   0.06122433  0.00374842
    Config      89  -0.07144041  0.00510373
    Config     101  -0.49680036  0.24681060
    Config     103   0.76200016  0.58064425
    Config     109   0.38276753  0.14651098
Total percent printed            0.99569385
  
State  101 48.0908     CI coeff  CI percent
    Config      38  -0.05407748  0.00292437
    Config      52  -0.10475699  0.01097403
    Config      63  -0.11436314  0.01307893
    Config      72   0.19808749  0.03923865
    Config      75  -0.04403415  0.00193901
    Config      88  -0.29548333  0.08731040
    Config      90  -0.26631248  0.07092234
    Config      94  -0.27104806  0.07346705
    Config      97  -0.53645570  0.28778472
    Config      99  -0.58471801  0.34189515
    Config     104  -0.19786290  0.03914973
    Config     107   0.08746669  0.00765042
    Config     111   0.04078378  0.00166332
    Config     113  -0.12245279  0.01499469
    Config     119  -0.04929048  0.00242955
Total percent printed            0.99542236
  
State  102 49.0259     CI coeff  CI percent
    Config      22   0.07843793  0.00615251
    Config      36   0.04765766  0.00227125
    Config      42   0.09585396  0.00918798
    Config      85   0.06668526  0.00444692
    Config      92  -0.22191609  0.04924675
    Config     100  -0.08555642  0.00731990
    Config     102  -0.95699146  0.91583266
Total percent printed            0.99445798
  
State  103 49.7886     CI coeff  CI percent
    Config      38   0.06615594  0.00437661
    Config      75  -0.07614251  0.00579768
    Config      79  -0.05286526  0.00279474
    Config      88   0.05532315  0.00306065
    Config      90   0.14532582  0.02111959
    Config      93  -0.05105523  0.00260664
    Config      94   0.08832384  0.00780110
    Config      97   0.14032879  0.01969217
    Config     104  -0.93271037  0.86994863
    Config     107   0.12111261  0.01466826
    Config     111   0.04512296  0.00203608
    Config     114   0.06056777  0.00366845
    Config     119   0.18956497  0.03593488
Total percent printed            0.99350549
  
State  104 50.0750     CI coeff  CI percent
    Config      14   0.08631648  0.00745053
    Config      25  -0.10652443  0.01134745
    Config      35   0.06360349  0.00404540
    Config      41  -0.09475663  0.00897882
    Config      49   0.09372628  0.00878462
    Config      52   0.10402262  0.01082070
    Config      63  -0.11188629  0.01251854
    Config      74  -0.25623509  0.06565642
    Config      88   0.06709659  0.00450195
    Config      90   0.27023026  0.07302439
    Config      93  -0.39958468  0.15966792
    Config      94  -0.30309832  0.09186859
    Config      97   0.48330205  0.23358087
    Config      99  -0.53288149  0.28396269
    Config     104   0.10484478  0.01099243
    Config     107   0.04436742  0.00196847
    Config     111  -0.06918457  0.00478651
Total percent printed            0.99395631
  
State  105 50.4650     CI coeff  CI percent
    Config      39   0.05690859  0.00323859
    Config      43   0.04470661  0.00199868
    Config      81  -0.15353597  0.02357329
    Config     105  -0.97379569  0.94827805
    Config     112  -0.12995711  0.01688885
    Config     116   0.04486313  0.00201270
Total percent printed            0.99599016
  
State  106 55.1081     CI coeff  CI percent
    Config       9   0.04529251  0.00205141
    Config      14   0.04761892  0.00226756
    Config      41  -0.04657028  0.00216879
    Config      99   0.07008172  0.00491145
    Config     104   0.05538433  0.00306742
    Config     106   0.82117161  0.67432282
    Config     107   0.47169026  0.22249170
    Config     111  -0.21721935  0.04718425
    Config     121  -0.17884880  0.03198689
Total percent printed            0.99045229
  
State  107 56.0292     CI coeff  CI percent
    Config       7   0.05326008  0.00283664
    Config      13   0.07356345  0.00541158
    Config      43  -0.05513545  0.00303992
    Config      64  -0.04745705  0.00225217
    Config      81  -0.05772785  0.00333250
    Config     108   0.94298344  0.88921778
    Config     110   0.14973628  0.02242095
    Config     112  -0.24740370  0.06120859
    Config     116   0.06592303  0.00434585
Total percent printed            0.99406598
  
State  108 56.1706     CI coeff  CI percent
    Config      75   0.07517325  0.00565102
    Config      94  -0.04250566  0.00180673
    Config      99   0.08490246  0.00720843
    Config     104   0.12606566  0.01589255
    Config     106  -0.42165724  0.17779483
    Config     107   0.84729590  0.71791034
    Config     111   0.22614621  0.05114211
    Config     114  -0.06934818  0.00480917
    Config     119   0.06372501  0.00406088
    Config     121   0.07077325  0.00500885
Total percent printed            0.99128490
  
State  109 56.8694     CI coeff  CI percent
    Config      61  -0.04179376  0.00174672
    Config      80  -0.07865071  0.00618593
    Config      96  -0.04728761  0.00223612
    Config      98   0.06577532  0.00432639
    Config     108  -0.21246586  0.04514174
    Config     110   0.91388132  0.83517906
    Config     112  -0.22656123  0.05132999
    Config     117  -0.21288100  0.04531832
    Config     120  -0.05046964  0.00254718
Total percent printed            0.99401146
  
State  110 58.0408     CI coeff  CI percent
    Config      59  -0.06531841  0.00426649
    Config      79   0.07046597  0.00496545
    Config      97   0.09535086  0.00909179
    Config     104   0.05264068  0.00277104
    Config     106   0.29433900  0.08663545
    Config     107  -0.11067605  0.01224919
    Config     111   0.92266681  0.85131405
    Config     113  -0.11297736  0.01276388
    Config     119   0.07808180  0.00609677
Total percent printed            0.99015411
  
State  111 58.6773     CI coeff  CI percent
    Config      64  -0.06577009  0.00432570
    Config      66   0.04451715  0.00198178
    Config      81   0.09717870  0.00944370
    Config     105   0.11806092  0.01393838
    Config     108  -0.18946062  0.03589533
    Config     110  -0.26320562  0.06927720
    Config     112  -0.92362482  0.85308281
    Config     116  -0.06177135  0.00381570
    Config     117   0.04976633  0.00247669
Total percent printed            0.99423728
  
State  112 59.3703     CI coeff  CI percent
    Config      72   0.04899818  0.00240082
    Config      99  -0.05821378  0.00338884
    Config     104  -0.05768889  0.00332801
    Config     106   0.04304407  0.00185279
    Config     107   0.06939345  0.00481545
    Config     111   0.14262245  0.02034116
    Config     113   0.84169810  0.70845569
    Config     114   0.30004861  0.09002917
    Config     119  -0.39497367  0.15600420
Total percent printed            0.99061614
  
State  113 59.6047     CI coeff  CI percent
    Config      48   0.07569276  0.00572939
    Config      71  -0.10158543  0.01031960
    Config      89   0.16836026  0.02834518
    Config      95  -0.06008142  0.00360978
    Config     101  -0.07254391  0.00526262
    Config     103  -0.45788933  0.20966264
    Config     109   0.85670256  0.73393927
Total percent printed            0.99686848
  
State  114 61.3490     CI coeff  CI percent
    Config      20   0.04651273  0.00216343
    Config      62   0.05521698  0.00304892
    Config     104  -0.04794704  0.00229892
    Config     106   0.05688367  0.00323575
    Config     113   0.35172465  0.12371023
    Config     114  -0.92412441  0.85400593
    Config     119   0.04969672  0.00246976
Total percent printed            0.99093294
  
State  115 61.9342     CI coeff  CI percent
    Config      68  -0.05145077  0.00264718
    Config      96  -0.04034392  0.00162763
    Config     110  -0.06738396  0.00454060
    Config     115   0.92766578  0.86056379
    Config     116  -0.24137912  0.05826388
    Config     117  -0.07660064  0.00586766
    Config     120  -0.24699530  0.06100668
Total percent printed            0.99451742
  
State  116 63.9955     CI coeff  CI percent
    Config       2  -0.04315842  0.00186265
    Config      28  -0.07341970  0.00539045
    Config      64   0.05141525  0.00264353
    Config      70   0.05937541  0.00352544
    Config     105  -0.04558571  0.00207806
    Config     108   0.08322405  0.00692624
    Config     115  -0.23120277  0.05345472
    Config     116  -0.95568507  0.91333396
    Config     117   0.04732853  0.00223999
    Config     120   0.05230265  0.00273557
Total percent printed            0.99419061
  
State  117 65.2276     CI coeff  CI percent
    Config       1  -0.05480801  0.00300392
    Config      25  -0.04039571  0.00163181
    Config      35   0.05240940  0.00274675
    Config      74  -0.05251680  0.00275801
    Config     106  -0.07062555  0.00498797
    Config     118  -0.89372482  0.79874405
    Config     121  -0.42028448  0.17663905
Total percent printed            0.99051155
  
State  118 66.5770     CI coeff  CI percent
    Config      83   0.04435251  0.00196715
    Config      96   0.06907565  0.00477144
    Config      98   0.05340475  0.00285207
    Config     110  -0.21363773  0.04564108
    Config     115  -0.07312877  0.00534782
    Config     117  -0.96290723  0.92719034
    Config     120   0.09343513  0.00873012
Total percent printed            0.99650002
  
State  119 69.0813     CI coeff  CI percent
    Config      88  -0.04301037  0.00184989
    Config      90  -0.05396223  0.00291192
    Config      94  -0.05318456  0.00282860
    Config      97  -0.07406795  0.00548606
    Config      99  -0.06853930  0.00469764
    Config     104   0.15886176  0.02523706
    Config     107  -0.04853830  0.00235597
    Config     113   0.36286658  0.13167216
    Config     114   0.18160860  0.03298168
    Config     119   0.88618156  0.78531776
Total percent printed            0.99533873
  
State  120 72.5006     CI coeff  CI percent
    Config       6  -0.04589874  0.00210669
    Config      24  -0.07478863  0.00559334
    Config      91  -0.06137754  0.00376720
    Config     110   0.05779523  0.00334029
    Config     115   0.25864591  0.06689771
    Config     117   0.05598610  0.00313444
    Config     120   0.95502781  0.91207812
Total percent printed            0.99691779
  
State  121 75.2239     CI coeff  CI percent
    Config      14   0.07536204  0.00567944
    Config      25  -0.08373596  0.00701171
    Config      49   0.05808493  0.00337386
    Config      93  -0.06047895  0.00365770
    Config     106   0.16597447  0.02754752
    Config     118  -0.42066896  0.17696237
    Config     121   0.87605442  0.76747135
Total percent printed            0.99170396
  

 -------------------------------------------------------------------------------
 INDO MRCI C.A.S.=(3,1)
 Nitric oxide
 INDO


     NO PARAMETERS MARKED FOR OPTIMIZATION, SO 1SCF WAS USED  
     SCF FIELD WAS ACHIEVED                                   


                              INDO CALCULATION
                                                       MOPAC2016 (Version: 20.173L)
                                                       Mon Jun 29 13:00:49 2020




          FINAL HEAT OF FORMATION =     -12350.77519 KCAL/MOL =  -51675.64341 KJ/MOL


          TOTAL ENERGY            =       -543.06361 EV  STATE:   1 DOUBLET ????
          ELECTRONIC ENERGY       =       -745.96974 EV  POINT GROUP:     C*v 
          CORE-CORE REPULSION     =        202.90613 EV
          COSMO AREA              =         52.81 SQUARE ANGSTROMS
          COSMO VOLUME            =         34.87 CUBIC ANGSTROMS

          IONIZATION POTENTIAL    =         11.083337 EV
          HOMO (SOMO) LUMO (EV)   =      -15.676 (-11.083) -1.674
          NO. OF FILLED LEVELS    =          5
          AND NO. OF OPEN LEVELS  =          1
          MOLECULAR WEIGHT        =         30.0061

          MOLECULAR DIMENSIONS (Angstroms)

            Atom       Atom       Distance
            O     2    N     1     1.17300
            O     2    N     1     0.00000
            N     1    O     2     0.00000


          SCF CALCULATIONS        =          1
 
          WALL-CLOCK TIME         =          0.219 SECONDS
          COMPUTATION TIME        =          0.072 SECONDS




   ATOM   CHEMICAL          X               Y               Z
  NUMBER   SYMBOL      (ANGSTROMS)     (ANGSTROMS)     (ANGSTROMS)
 
     1       N          0.00000000      0.00000000      0.00000000   
     2       O          1.17300000      0.00000000      0.00000000   

                             CARTESIAN COORDINATES

   1    N        0.000000000     0.000000000     0.000000000
   2    O        1.173000000     0.000000000     0.000000000


           Empirical Formula: N O  =     2 atoms



      MOLECULAR POINT GROUP   :   C*v 


                  EIGENVALUES  
 -46.30852 -22.70657 -17.77413 -16.30737 -15.67555 -11.08334  -1.67356  11.42925


              NET ATOMIC CHARGES AND DIPOLE CONTRIBUTIONS

  ATOM NO.   TYPE          CHARGE      No. of ELECS.   s-Pop       p-Pop       
    1          N           0.114882        4.8851     1.83667     3.04845
    2          O          -0.114882        6.1149     1.83417     4.28071
 DIPOLE           X         Y         Z       TOTAL
 POINT-CHG.    -0.647     0.000     0.000     0.647
 HYBRID         0.309     0.000     0.000     0.309
 SUM           -0.338     0.000     0.000     0.338


          ATOMIC ORBITAL ELECTRON POPULATIONS

     Atom    s        px        py        pz   
    1  N   1.83667   1.08731   1.27356   0.68758
    2  O   1.83417   1.24185   1.72644   1.31242

 **********************
 *                    *
 * JOB ENDED NORMALLY *
 *                    *
 **********************



 TOTAL JOB TIME:             0.32 SECONDS

 == MOPAC DONE ==


          MOPAC Job: "no_mrci.mop" ended normally on Jun 29, 2020, at 13:00.

