 *******************************************************************************
 **                                                                           **
 **                              MOPAC v22.0.6                                **
 **                                                                           **
 *******************************************************************************
 **          Digital Object Identifier (DOI): 10.5281/zenodo.6511958          **
 **    Visit the DOI location for information on how to cite this program.    **
 *******************************************************************************

                              PM7 CALCULATION RESULTS

 *******************************************************************************
 *  CALCULATION DONE:                                Thu Apr 13 11:25:41 2023  *
 *  START_RES  - STARTING RESIDUE NUMBERS DEFINED
 *  Keyword:     START_RES=(1A) 
 *  CHAINS     - PDB CHAIN LETTERS EXPLICITLY DEFINED
 *  Keyword:     CHAINS=(A) 
 *  T=         - A TIME OF 172800.0 SECONDS REQUESTED
 *  DUMP=N     - RESTART FILE WRITTEN EVERY 7200.0 SECONDS REQUESTED
 *  HEADER     - DATA SET IS IN PROTEIN DATA BANK FORMAT
 *******************************************************************************
 ADD-H PDBOUT   CHAINS=(A)  START_RES=(1A)
 From PDB file: 'PDB1EJG'

   ATOM                 CHEMICAL                   X               Y               Z
  NUMBER                 SYMBOL               (ANGSTROMS)     (ANGSTROMS)     (ANGSTROMS)

     1       N(ATOM      1  N   THR A   1)   16.88500000  *  14.07800000  *   3.42700000  *
     2       C(ATOM      3  CA  THR A   1)   16.93800000  *  12.83400000  *   4.23400000  *
     3       C(ATOM      5  C   THR A   1)   15.64200000  *  12.76000000  *   4.98500000  *
     4       O(ATOM      6  O   THR A   1)   15.15000000  *  13.81800000  *   5.43900000  *
     5       C(ATOM      7  CB  THR A   1)   18.10300000  *  12.87500000  *   5.20200000  *
     6       O(ATOM      9  OG1 THR A   1)   19.25600000  *  13.00400000  *   4.40100000  *
     7       C(ATOM     11  CG2 THR A   1)   18.17300000  *  11.58200000  *   6.05500000  *
     8       H(ATOM     13  H1  THR A   1)   17.70500000  *  14.13900000  *   2.84000000  *
     9       H(ATOM     15  H2  THR A   1)   16.87900000  *  14.89400000  *   4.04900000  *
    10       H(ATOM     17  H3  THR A   1)   16.05700000  *  14.10500000  *   2.85900000  *
    11       H(ATOM     19  HA  THR A   1)   17.01300000  *  11.96900000  *   3.57700000  *
    12       H(ATOM     21  HB  THR A   1)   17.99500000  *  13.75800000  *   5.84800000  *
    13       H(ATOM     23  HG1 THR A   1)   19.85200000  *  13.64400000  *   4.80300000  *
    14       H(ATOM     25 HG21 THR A   1)   19.02400000  *  11.65900000  *   6.73700000  *
    15       H(ATOM     27 HG22 THR A   1)   18.29000000  *  10.71800000  *   5.39600000  *
    16       H(ATOM     29 HG23 THR A   1)   17.24100000  *  11.48100000  *   6.63600000  *
    17       N(ATOM     31  N   THR A   2)   15.06900000  *  11.58600000  *   5.13400000  *
    18       C(ATOM     32  CA  THR A   2)   13.85600000  *  11.49800000  *   5.93200000  *
    19       C(ATOM     34  C   THR A   2)   14.17200000  *  10.75700000  *   7.22100000  *
    20       O(ATOM     35  O   THR A   2)   15.00600000  *   9.85700000  *   7.31500000  *
    21       C(ATOM     36  CB  THR A   2)   12.78500000  *  10.74200000  *   5.12900000  *
    22       O(ATOM     38  OG1 THR A   2)   13.31200000  *   9.43700000  *   4.77000000  *
    23       C(ATOM     40  CG2 THR A   2)   12.31500000  *  11.61200000  *   3.97300000  *
    24       H(ATOM     42  H   THR A   2)   15.46500000  *  10.76900000  *   4.69400000  *
    25       H(ATOM     43  HA  THR A   2)   13.50800000  *  12.53200000  *   6.15400000  *
    26       H(ATOM     45  HB  THR A   2)   11.92500000  *  10.59400000  *   5.81900000  *
    27       H(ATOM     47  HG1 THR A   2)   14.20000000  *   9.34500000  *   5.12500000  *
    28       H(ATOM     49 HG21 THR A   2)   11.57000000  *  11.06700000  *   3.37300000  *
    29       H(ATOM     51 HG22 THR A   2)   13.15900000  *  11.90100000  *   3.34700000  *
    30       H(ATOM     53 HG23 THR A   2)   11.82800000  *  12.53900000  *   4.36800000  *
    31       N(ATOM     55  N   CYS A   3)   13.43800000  *  11.19200000  *   8.26400000  *
    32       C(ATOM     56  CA  CYS A   3)   13.60700000  *  10.67500000  *   9.60000000  *
    33       C(ATOM     57  C   CYS A   3)   12.21000000  *  10.41300000  *  10.16400000  *
    34       O(ATOM     58  O   CYS A   3)   11.32400000  *  11.24600000  *   9.99600000  *
    35       C(ATOM     59  CB  CYS A   3)   14.30000000  *  11.70300000  *  10.52300000  *
    36       S(ATOM     60  SG  CYS A   3)   15.84600000  *  12.37400000  *   9.88000000  *
    37       H(ATOM     61  H   CYS A   3)   12.74300000  *  11.90600000  *   8.10400000  *
    38       H(ATOM     62  HA  CYS A   3)   14.18500000  *   9.74100000  *   9.57300000  *
    39       H(ATOM     63  HB2 CYS A   3)   13.60500000  *  12.53500000  *  10.70300000  *
    40       H(ATOM     64  HB3 CYS A   3)   14.50200000  *  11.22400000  *  11.49100000  *
    41       N(ATOM     65  N   CYS A   4)   12.01500000  *   9.27700000  *  10.85000000  *
    42       C(ATOM     66  CA  CYS A   4)   10.68100000  *   8.94400000  *  11.32600000  *
    43       C(ATOM     67  C   CYS A   4)   10.68300000  *   8.74500000  *  12.83800000  *
    44       O(ATOM     68  O   CYS A   4)   11.65100000  *   8.27200000  *  13.41800000  *
    45       C(ATOM     69  CB  CYS A   4)   10.15500000  *   7.68400000  *  10.61700000  *
    46       S(ATOM     70  SG  CYS A   4)    9.83300000  *   7.93400000  *   8.84300000  *
    47       H(ATOM     71  H   CYS A   4)   12.78900000  *   8.65700000  *  11.03500000  *
    48       H(ATOM     72  HA  CYS A   4)   10.00900000  *   9.78100000  *  11.08800000  *
    49       H(ATOM     73  HB2 CYS A   4)   10.89100000  *   6.87600000  *  10.73400000  *
    50       H(ATOM     74  HB3 CYS A   4)    9.22500000  *   7.36200000  *  11.10500000  *
    51       N(ATOM     75  N   PRO A   5)    9.54600000  *   9.09300000  *  13.47500000  *
    52       C(ATOM     76  CA  PRO A   5)    9.50000000  *   9.07900000  *  14.93700000  *
    53       C(ATOM     77  C   PRO A   5)    9.37300000  *   7.68800000  *  15.54600000  *
    54       O(ATOM     78  O   PRO A   5)    9.64000000  *   7.54200000  *  16.74800000  *
    55       C(ATOM     79  CB  PRO A   5)    8.26700000  *   9.93900000  *  15.26700000  *
    56       C(ATOM     80  CG  PRO A   5)    7.36400000  *   9.74200000  *  14.04400000  *
    57       C(ATOM     81  CD  PRO A   5)    8.36000000  *   9.74800000  *  12.89800000  *
    58       H(ATOM     82  HA  PRO A   5)   10.40100000  *   9.56800000  *  15.33400000  *
    59       H(ATOM     83  HB2 PRO A   5)    7.77300000  *   9.58700000  *  16.18400000  *
    60       H(ATOM     84  HB3 PRO A   5)    8.54200000  *  10.99500000  *  15.39000000  *
    61       H(ATOM     85  HG2 PRO A   5)    6.82300000  *   8.78700000  *  14.09800000  *
    62       H(ATOM     86  HG3 PRO A   5)    6.64000000  *  10.56300000  *  13.94700000  *
    63       H(ATOM     87  HD2 PRO A   5)    7.97600000  *   9.18300000  *  12.03700000  *
    64       H(ATOM     88  HD3 PRO A   5)    8.59000000  *  10.77400000  *  12.58000000  *
    65       N(ATOM     89  N   SER A   6)    8.92600000  *   6.70500000  *  14.75600000  *
    66       C(ATOM     90  CA  SER A   6)    8.75500000  *   5.34700000  *  15.23100000  *
    67       C(ATOM     91  C   SER A   6)    8.83200000  *   4.42900000  *  14.00800000  *
    68       O(ATOM     92  O   SER A   6)    8.75700000  *   4.86700000  *  12.86000000  *
    69       C(ATOM     93  CB  SER A   6)    7.40900000  *   5.16100000  *  15.93000000  *
    70       O(ATOM     94  OG  SER A   6)    6.37100000  *   5.26500000  *  14.95300000  *
    71       H(ATOM     95  H   SER A   6)    8.70000000  *   6.91600000  *  13.79600000  *
    72       H(ATOM     96  HA  SER A   6)    9.56700000  *   5.09800000  *  15.92800000  *
    73       H(ATOM     97  HB2 SER A   6)    7.37100000  *   4.17600000  *  16.41500000  *
    74       H(ATOM     98  HB3 SER A   6)    7.27700000  *   5.93200000  *  16.70200000  *
    75       H(ATOM     99  HG  SER A   6)    5.56000000  *   4.87000000  *  15.30000000  *
    76       N(ATOM    100  N   ILE A   7)    8.93600000  *   3.12900000  *  14.30200000  *
    77       C(ATOM    101  CA  ILE A   7)    8.82900000  *   2.03900000  *  13.30000000  *
    78       C(ATOM    103  C   ILE A   7)    7.55900000  *   2.14100000  *  12.46000000  *
    79       O(ATOM    105  O   ILE A   7)    7.57300000  *   2.12400000  *  11.20500000  *
    80       C(ATOM    107  CB  ILE A   7)    8.92800000  *   0.64400000  *  13.93200000  *
    81       C(ATOM    109  CG1 ILE A   7)   10.30900000  *   0.38500000  *  14.57300000  *
    82       C(ATOM    111  CG2 ILE A   7)    8.51000000  *  -0.46400000  *  12.90800000  *
    83       C(ATOM    113  CD1 ILE A   7)   11.43000000  *   0.29500000  *  13.47300000  *
    84       H(ATOM    115  H   ILE A   7)    9.07800000  *   2.87800000  *  15.26900000  *
    85       H(ATOM    116  HA  ILE A   7)    9.71400000  *   2.12300000  *  12.62300000  *
    86       H(ATOM    118  HB  ILE A   7)    8.20000000  *   0.59800000  *  14.75900000  *
    87       H(ATOM    120 HG12 ILE A   7)   10.55000000  *   1.17000000  *  15.24000000  *
    88       H(ATOM    122 HG13 ILE A   7)   10.27400000  *  -0.57900000  *  15.10600000  *
    89       H(ATOM    124 HG21 ILE A   7)    7.86300000  *   0.00400000  *  12.14600000  *
    90       H(ATOM    126 HG22 ILE A   7)    7.95500000  *  -1.25100000  *  13.42600000  *
    91       H(ATOM    128 HG23 ILE A   7)    9.40200000  *  -0.87300000  *  12.43400000  *
    92       H(ATOM    130 HD11 ILE A   7)   12.38900000  *   0.05500000  *  13.96000000  *
    93       H(ATOM    132 HD12 ILE A   7)   11.49900000  *   1.21700000  *  12.92200000  *
    94       H(ATOM    134 HD13 ILE A   7)   11.19600000  *  -0.54400000  *  12.76100000  *
    95       N(ATOM    136  N   VAL A   8)    6.38200000  *   2.22200000  *  13.07000000  *
    96       C(ATOM    138  CA  VAL A   8)    5.09900000  *   2.25900000  *  12.38000000  *
    97       C(ATOM    140  C   VAL A   8)    5.20800000  *   3.38600000  *  11.37300000  *
    98       O(ATOM    141  O   VAL A   8)    4.71200000  *   3.30200000  *  10.23800000  *
    99       C(ATOM    142  CB  VAL A   8)    3.94400000  *   2.39400000  *  13.37500000  *
   100       C(ATOM    144  CG1 VAL A   8)    2.62900000  *   2.98100000  *  12.70100000  *
   101       C(ATOM    146  CG2 VAL A   8)    3.63500000  *   1.03600000  *  13.95500000  *
   102       H(ATOM    148  H   VAL A   8)    6.37400000  *   2.23100000  *  14.08400000  *
   103       H(ATOM    150  HA  VAL A   8)    4.94800000  *   1.36400000  *  11.84500000  *
   104       H(ATOM    152  HB  VAL A   8)    4.20400000  *   3.07700000  *  14.19700000  *
   105       H(ATOM    154 HG11 VAL A   8)    2.86200000  *   3.97900000  *  12.28600000  *
   106       H(ATOM    156 HG12 VAL A   8)    1.84500000  *   3.10300000  *  13.47800000  *
   107       H(ATOM    158 HG13 VAL A   8)    2.28600000  *   2.31800000  *  11.92600000  *
   108       H(ATOM    160 HG21 VAL A   8)    4.53600000  *   0.67100000  *  14.46700000  *
   109       H(ATOM    162 HG22 VAL A   8)    3.36700000  *   0.34300000  *  13.14500000  *
   110       H(ATOM    164 HG23 VAL A   8)    2.80500000  *   1.09800000  *  14.67300000  *
   111       N(ATOM    166  N   ALA A   9)    5.66800000  *   4.55600000  *  11.84800000  *
   112       C(ATOM    167  CA  ALA A   9)    5.63700000  *   5.73200000  *  10.99700000  *
   113       C(ATOM    168  C   ALA A   9)    6.49600000  *   5.51000000  *   9.74200000  *
   114       O(ATOM    169  O   ALA A   9)    6.08700000  *   5.88700000  *   8.64000000  *
   115       C(ATOM    170  CB  ALA A   9)    6.08800000  *   6.96800000  *  11.77200000  *
   116       H(ATOM    171  H   ALA A   9)    6.03100000  *   4.61700000  *  12.78700000  *
   117       H(ATOM    172  HA  ALA A   9)    4.59900000  *   5.89200000  *  10.67500000  *
   118       H(ATOM    173  HB1 ALA A   9)    5.45000000  *   7.09800000  *  12.65800000  *
   119       H(ATOM    174  HB2 ALA A   9)    6.00500000  *   7.85500000  *  11.12800000  *
   120       H(ATOM    175  HB3 ALA A   9)    7.13200000  *   6.84100000  *  12.08900000  *
   121       N(ATOM    176  N   ARG A  10)    7.68500000  *   4.89800000  *   9.90500000  *
   122       C(ATOM    177  CA  ARG A  10)    8.50500000  *   4.57300000  *   8.73700000  *
   123       C(ATOM    178  C   ARG A  10)    7.81100000  *   3.57600000  *   7.81100000  *
   124       O(ATOM    179  O   ARG A  10)    7.84000000  *   3.74200000  *   6.58000000  *
   125       C(ATOM    180  CB  ARG A  10)    9.85700000  *   4.01400000  *   9.19900000  *
   126       C(ATOM    181  CG  ARG A  10)   10.76700000  *   3.57000000  *   8.04700000  *
   127       C(ATOM    182  CD  ARG A  10)   11.27200000  *   4.69300000  *   7.13900000  *
   128       N(ATOM    183  NE  ARG A  10)   12.13700000  *   5.62000000  *   7.82400000  *
   129       C(ATOM    185  CZ  ARG A  10)   12.68300000  *   6.71900000  *   7.29500000  *
   130       N(ATOM    187  NH1 ARG A  10)   12.43600000  *   7.05300000  *   6.05300000  *
   131       N(ATOM    189  NH2 ARG A  10)   13.44300000  *   7.50300000  *   8.09000000  *
   132       H(ATOM    191  H   ARG A  10)    8.00900000  *   4.66300000  *  10.83100000  *
   133       H(ATOM    192  HA  ARG A  10)    8.68800000  *   5.49900000  *   8.17400000  *
   134       H(ATOM    193  HB2 ARG A  10)   10.37700000  *   4.78400000  *   9.78500000  *
   135       H(ATOM    194  HB3 ARG A  10)    9.67700000  *   3.15500000  *   9.86000000  *
   136       H(ATOM    195  HG2 ARG A  10)   11.63600000  *   3.05000000  *   8.47200000  *
   137       H(ATOM    196  HG3 ARG A  10)   10.21700000  *   2.84600000  *   7.43000000  *
   138       H(ATOM    197  HD2 ARG A  10)   11.81800000  *   4.25100000  *   6.29300000  *
   139       H(ATOM    198  HD3 ARG A  10)   10.41000000  *   5.24000000  *   6.73200000  *
   140       H(ATOM    199  HE  ARG A  10)   12.35000000  *   5.42200000  *   8.79000000  *
   141       H(ATOM    201 HH11 ARG A  10)   11.83000000  *   6.47800000  *   5.48700000  *
   142       H(ATOM    203 HH12 ARG A  10)   12.85300000  *   7.88400000  *   5.66100000  *
   143       H(ATOM    205 HH21 ARG A  10)   13.83100000  *   8.36200000  *   7.72900000  *
   144       H(ATOM    207 HH22 ARG A  10)   13.62200000  *   7.23000000  *   9.04400000  *
   145       N(ATOM    209  N   SER A  11)    7.21100000  *   2.52200000  *   8.36900000  *
   146       C(ATOM    210  CA  SER A  11)    6.53800000  *   1.56200000  *   7.51000000  *
   147       C(ATOM    211  C   SER A  11)    5.41500000  *   2.24300000  *   6.71100000  *
   148       O(ATOM    212  O   SER A  11)    5.22700000  *   1.99500000  *   5.51700000  *
   149       C(ATOM    213  CB  SER A  11)    5.96700000  *   0.41600000  *   8.33500000  *
   150       O(ATOM    214  OG  SER A  11)    7.04300000  *  -0.26700000  *   8.96200000  *
   151       H(ATOM    215  H   SER A  11)    7.22400000  *   2.39500000  *   9.37000000  *
   152       H(ATOM    216  HA  SER A  11)    7.27100000  *   1.15200000  *   6.80200000  *
   153       H(ATOM    217  HB2 SER A  11)    5.27600000  *   0.80700000  *   9.09500000  *
   154       H(ATOM    218  HB3 SER A  11)    5.41100000  *  -0.27500000  *   7.68500000  *
   155       H(ATOM    219  HG  SER A  11)    6.69700000  *  -1.00500000  *   9.48200000  *
   156       N(ATOM    220  N   ASN A  12)    4.66100000  *   3.11600000  *   7.38200000  *
   157       C(ATOM    221  CA  ASN A  12)    3.59500000  *   3.89800000  *   6.75600000  *
   158       C(ATOM    223  C   ASN A  12)    4.15400000  *   4.79300000  *   5.64700000  *
   159       O(ATOM    224  O   ASN A  12)    3.54900000  *   4.95800000  *   4.58100000  *
   160       C(ATOM    225  CB  ASN A  12)    2.83100000  *   4.76400000  *   7.75600000  *
   161       C(ATOM    227  CG  ASN A  12)    1.90100000  *   3.95600000  *   8.67000000  *
   162       O(ATOM    229  OD1 ASN A  12)    1.51300000  *   2.85400000  *   8.30200000  *
   163       N(ATOM    231  ND2 ASN A  12)    1.53400000  *   4.53600000  *   9.78900000  *
   164       H(ATOM    233  H   ASN A  12)    4.83500000  *   3.24200000  *   8.36800000  *
   165       H(ATOM    234  HA  ASN A  12)    2.88200000  *   3.19600000  *   6.30000000  *
   166       H(ATOM    236  HB2 ASN A  12)    3.55300000  *   5.31300000  *   8.37700000  *
   167       H(ATOM    238  HB3 ASN A  12)    2.23400000  *   5.50300000  *   7.20400000  *
   168       H(ATOM    240 HD21 ASN A  12)    0.89000000  *   4.07000000  *  10.41000000  *
   169       H(ATOM    242 HD22 ASN A  12)    1.89700000  *   5.44700000  *  10.02700000  *
   170       N(ATOM    244  N   PHE A  13)    5.28800000  *   5.43400000  *   5.95000000  *
   171       C(ATOM    245  CA  PHE A  13)    5.94000000  *   6.32200000  *   4.99400000  *
   172       C(ATOM    246  C   PHE A  13)    6.31200000  *   5.54800000  *   3.71900000  *
   173       O(ATOM    247  O   PHE A  13)    6.09200000  *   6.01800000  *   2.61100000  *
   174       C(ATOM    248  CB  PHE A  13)    7.17600000  *   6.94600000  *   5.67200000  *
   175       C(ATOM    249  CG  PHE A  13)    7.94100000  *   7.88800000  *   4.75500000  *
   176       C(ATOM    251  CD1 PHE A  13)    8.98400000  *   7.30900000  *   3.94900000  *
   177       C(ATOM    253  CD2 PHE A  13)    7.61000000  *   9.26800000  *   4.69000000  *
   178       C(ATOM    255  CE1 PHE A  13)    9.67400000  *   8.20100000  *   3.09900000  *
   179       C(ATOM    257  CE2 PHE A  13)    8.31000000  *  10.11700000  *   3.81600000  *
   180       C(ATOM    259  CZ  PHE A  13)    9.37500000  *   9.57600000  *   3.04400000  *
   181       H(ATOM    261  H   PHE A  13)    5.70100000  *   5.30100000  *   6.86100000  *
   182       H(ATOM    262  HA  PHE A  13)    5.24000000  *   7.12600000  *   4.72600000  *
   183       H(ATOM    263  HB2 PHE A  13)    6.85300000  *   7.50000000  *   6.56500000  *
   184       H(ATOM    264  HB3 PHE A  13)    7.84800000  *   6.14200000  *   6.00100000  *
   185       H(ATOM    265  HD1 PHE A  13)    9.22800000  *   6.23800000  *   3.99200000  *
   186       H(ATOM    267  HD2 PHE A  13)    6.80600000  *   9.67100000  *   5.32300000  *
   187       H(ATOM    269  HE1 PHE A  13)   10.47400000  *   7.80700000  *   2.45600000  *
   188       H(ATOM    271  HE2 PHE A  13)    8.04000000  *  11.17800000  *   3.73100000  *
   189       H(ATOM    273  HZ  PHE A  13)    9.97000000  *  10.23800000  *   2.39900000  *
   190       N(ATOM    275  N   ASN A  14)    6.89200000  *   4.35600000  *   3.90600000  *
   191       C(ATOM    276  CA  ASN A  14)    7.32300000  *   3.60000000  *   2.74600000  *
   192       C(ATOM    277  C   ASN A  14)    6.13700000  *   3.15000000  *   1.88700000  *
   193       O(ATOM    278  O   ASN A  14)    6.24800000  *   3.11700000  *   0.66300000  *
   194       C(ATOM    279  CB  ASN A  14)    8.18800000  *   2.41700000  *   3.16700000  *
   195       C(ATOM    280  CG  ASN A  14)    9.56300000  *   2.85800000  *   3.65400000  *
   196       O(ATOM    281  OD1 ASN A  14)   10.05100000  *   3.92500000  *   3.24600000  *
   197       N(ATOM    282  ND2 ASN A  14)   10.18000000  *   2.02500000  *   4.47500000  *
   198       H(ATOM    283  H   ASN A  14)    7.02600000  *   3.99000000  *   4.83700000  *
   199       H(ATOM    284  HA  ASN A  14)    7.94600000  *   4.26300000  *   2.13100000  *
   200       H(ATOM    285  HB2 ASN A  14)    7.68000000  *   1.86600000  *   3.97100000  *
   201       H(ATOM    286  HB3 ASN A  14)    8.30800000  *   1.73500000  *   2.31400000  *
   202       H(ATOM    287 HD21 ASN A  14)   11.10700000  *   2.24100000  *   4.81000000  *
   203       H(ATOM    288 HD22 ASN A  14)    9.72400000  *   1.17400000  *   4.76700000  *
   204       N(ATOM    289  N   VAL A  15)    4.99200000  *   2.81700000  *   2.50300000  *
   205       C(ATOM    290  CA  VAL A  15)    3.80900000  *   2.51500000  *   1.69500000  *
   206       C(ATOM    291  C   VAL A  15)    3.30900000  *   3.77200000  *   0.97000000  *
   207       O(ATOM    292  O   VAL A  15)    2.96700000  *   3.73300000  *  -0.20700000  *
   208       C(ATOM    293  CB  VAL A  15)    2.71800000  *   1.85300000  *   2.54600000  *
   209       C(ATOM    294  CG1 VAL A  15)    1.39000000  *   1.79800000  *   1.79500000  *
   210       C(ATOM    295  CG2 VAL A  15)    3.17100000  *   0.45800000  *   2.96600000  *
   211       H(ATOM    296  H   VAL A  15)    4.94800000  *   2.77500000  *   3.51000000  *
   212       H(ATOM    297  HA  VAL A  15)    4.11200000  *   1.79000000  *   0.92700000  *
   213       H(ATOM    298  HB  VAL A  15)    2.57600000  *   2.45700000  *   3.45300000  *
   214       H(ATOM    299 HG11 VAL A  15)    1.08600000  *   2.81600000  *   1.51400000  *
   215       H(ATOM    300 HG12 VAL A  15)    0.62100000  *   1.35300000  *   2.44300000  *
   216       H(ATOM    301 HG13 VAL A  15)    1.50600000  *   1.18700000  *   0.89000000  *
   217       H(ATOM    302 HG21 VAL A  15)    4.12400000  *   0.53000000  *   3.50900000  *
   218       H(ATOM    303 HG22 VAL A  15)    3.30400000  *  -0.16900000  *   2.07300000  *
   219       H(ATOM    304 HG23 VAL A  15)    2.41100000  *   0.00700000  *   3.61900000  *
   220       N(ATOM    305  N   CYS A  16)    3.26500000  *   4.91000000  *   1.69700000  *
   221       C(ATOM    306  CA  CYS A  16)    2.85300000  *   6.16800000  *   1.08500000  *
   222       C(ATOM    307  C   CYS A  16)    3.68000000  *   6.49700000  *  -0.17100000  *
   223       O(ATOM    308  O   CYS A  16)    3.15900000  *   7.03700000  *  -1.14600000  *
   224       C(ATOM    309  CB  CYS A  16)    2.98100000  *   7.25700000  *   2.15500000  *
   225       S(ATOM    310  SG  CYS A  16)    2.57100000  *   8.93100000  *   1.59300000  *
   226       H(ATOM    311  H   CYS A  16)    3.51900000  *   4.89000000  *   2.67300000  *
   227       H(ATOM    312  HA  CYS A  16)    1.79600000  *   6.08500000  *   0.79500000  *
   228       H(ATOM    313  HB2 CYS A  16)    2.32100000  *   7.00000000  *   2.99600000  *
   229       H(ATOM    314  HB3 CYS A  16)    4.01300000  *   7.25800000  *   2.53300000  *
   230       N(ATOM    315  N   ARG A  17)    4.98000000  *   6.16600000  *  -0.13500000  *
   231       C(ATOM    316  CA  ARG A  17)    5.85000000  *   6.47400000  *  -1.24400000  *
   232       C(ATOM    317  C   ARG A  17)    5.64100000  *   5.55400000  *  -2.45500000  *
   233       O(ATOM    318  O   ARG A  17)    6.03300000  *   5.93200000  *  -3.56300000  *
   234       C(ATOM    319  CB  ARG A  17)    7.31700000  *   6.41300000  *  -0.80200000  *
   235       C(ATOM    320  CG  ARG A  17)    7.69200000  *   7.57100000  *   0.12400000  *
   236       C(ATOM    321  CD  ARG A  17)    7.90300000  *   8.89300000  *  -0.61500000  *
   237       N(ATOM    322  NE  ARG A  17)    9.15600000  *   8.83300000  *  -1.36400000  *
   238       C(ATOM    323  CZ  ARG A  17)    9.47200000  *   9.60000000  *  -2.39600000  *
   239       N(ATOM    324  NH1 ARG A  17)    8.58500000  *  10.41600000  *  -2.96600000  *
   240       N(ATOM    325  NH2 ARG A  17)   10.71300000  *   9.56100000  *  -2.88900000  *
   241       H(ATOM    326  H   ARG A  17)    5.35200000  *   5.69600000  *   0.67600000  *
   242       H(ATOM    327  HA  ARG A  17)    5.63700000  *   7.50400000  *  -1.56300000  *
   243       H(ATOM    328  HB2 ARG A  17)    7.49800000  *   5.46200000  *  -0.28200000  *
   244       H(ATOM    329  HB3 ARG A  17)    7.96300000  *   6.43900000  *  -1.69100000  *
   245       H(ATOM    330  HG2 ARG A  17)    6.89600000  *   7.70300000  *   0.87000000  *
   246       H(ATOM    331  HG3 ARG A  17)    8.61500000  *   7.31200000  *   0.66200000  *
   247       H(ATOM    332  HD2 ARG A  17)    7.06500000  *   9.07200000  *  -1.30300000  *
   248       H(ATOM    333  HD3 ARG A  17)    7.93900000  *   9.72100000  *   0.10700000  *
   249       H(ATOM    334  HE  ARG A  17)    9.83800000  *   8.15000000  *  -1.07000000  *
   250       H(ATOM    335 HH11 ARG A  17)    7.64200000  *  10.46200000  *  -2.61100000  *
   251       H(ATOM    336 HH12 ARG A  17)    8.85800000  *  10.98800000  *  -3.75100000  *
   252       H(ATOM    337 HH21 ARG A  17)   11.40200000  *   8.95100000  *  -2.47400000  *
   253       H(ATOM    338 HH22 ARG A  17)   10.96200000  *  10.14200000  *  -3.67500000  *
   254       N(ATOM    339  N   LEU A  18)    5.05300000  *   4.36000000  *  -2.27100000  *
   255       C(ATOM    340  CA  LEU A  18)    4.95400000  *   3.41800000  *  -3.38700000  *
   256       C(ATOM    341  C   LEU A  18)    4.32100000  *   4.01300000  *  -4.63800000  *
   257       O(ATOM    342  O   LEU A  18)    4.84900000  *   3.78000000  *  -5.74400000  *
   258       C(ATOM    343  CB  LEU A  18)    4.20300000  *   2.14900000  *  -2.98000000  *
   259       C(ATOM    344  CG  LEU A  18)    4.94200000  *   1.21200000  *  -2.02000000  *
   260       C(ATOM    345  CD1 LEU A  18)    3.98700000  *   0.09800000  *  -1.58600000  *
   261       C(ATOM    346  CD2 LEU A  18)    6.19700000  *   0.62500000  *  -2.64100000  *
   262       H(ATOM    347  H   LEU A  18)    4.68100000  *   4.11300000  *  -1.36600000  *
   263       H(ATOM    348  HA  LEU A  18)    5.97800000  *   3.11900000  *  -3.65100000  *
   264       H(ATOM    349  HB2 LEU A  18)    3.25400000  *   2.44400000  *  -2.51100000  *
   265       H(ATOM    350  HB3 LEU A  18)    3.95800000  *   1.58500000  *  -3.89100000  *
   266       H(ATOM    351  HG  LEU A  18)    5.23200000  *   1.78700000  *  -1.12900000  *
   267       H(ATOM    352 HD11 LEU A  18)    3.07000000  *   0.54200000  *  -1.17300000  *
   268       H(ATOM    353 HD12 LEU A  18)    4.47200000  *  -0.52200000  *  -0.81900000  *
   269       H(ATOM    354 HD13 LEU A  18)    3.73300000  *  -0.52600000  *  -2.45400000  *
   270       H(ATOM    355 HD21 LEU A  18)    6.87900000  *   1.43800000  *  -2.92800000  *
   271       H(ATOM    356 HD22 LEU A  18)    5.92600000  *   0.04200000  *  -3.53300000  *
   272       H(ATOM    357 HD23 LEU A  18)    6.69500000  *  -0.03000000  *  -1.91300000  *
   273       N(ATOM    358  N   PRO A  19)    3.20900000  *   4.75400000  *  -4.57100000  *
   274       C(ATOM    359  CA  PRO A  19)    2.66000000  *   5.33700000  *  -5.80400000  *
   275       C(ATOM    360  C   PRO A  19)    3.43400000  *   6.54800000  *  -6.31700000  *
   276       O(ATOM    361  O   PRO A  19)    3.08600000  *   7.06200000  *  -7.37900000  *
   277       C(ATOM    362  CB  PRO A  19)    1.22600000  *   5.73600000  *  -5.41300000  *
   278       C(ATOM    363  CG  PRO A  19)    1.28300000  *   5.91200000  *  -3.89000000  *
   279       C(ATOM    365  CD  PRO A  19)    2.24900000  *   4.85900000  *  -3.44600000  *
   280       H(ATOM    366  HA  PRO A  19)    2.62500000  *   4.56700000  *  -6.58800000  *
   281       H(ATOM    367  HB2 PRO A  19)    0.93200000  *   6.67300000  *  -5.90600000  *
   282       H(ATOM    369  HB3 PRO A  19)    0.51100000  *   4.94800000  *  -5.69000000  *
   283       H(ATOM    371  HG2 PRO A  19)    1.64400000  *   6.91500000  *  -3.62200000  *
   284       H(ATOM    373  HG3 PRO A  19)    0.29400000  *   5.75500000  *  -3.43700000  *
   285       H(ATOM    375  HD2 PRO A  19)    2.76000000  *   5.16000000  *  -2.52100000  *
   286       H(ATOM    377  HD3 PRO A  19)    1.73700000  *   3.90200000  *  -3.27700000  *
   287       N(ATOM    379  N   GLY A  20)    4.42000000  *   7.02700000  *  -5.55900000  *
   288       C(ATOM    380  CA  GLY A  20)    5.22300000  *   8.16700000  *  -5.96000000  *
   289       C(ATOM    381  C   GLY A  20)    4.90200000  *   9.46600000  *  -5.24800000  *
   290       O(ATOM    382  O   GLY A  20)    5.44300000  *  10.50500000  *  -5.62000000  *
   291       H(ATOM    383  H   GLY A  20)    4.61400000  *   6.58200000  *  -4.67500000  *
   292       H(ATOM    384  HA2 GLY A  20)    6.28100000  *   7.92600000  *  -5.78500000  *
   293       H(ATOM    385  HA3 GLY A  20)    5.09300000  *   8.32100000  *  -7.04100000  *
   294       N(ATOM    386  N   THR A  21)    4.05600000  *   9.40400000  *  -4.21600000  *
   295       C(ATOM    387  CA  THR A  21)    3.66400000  *  10.57600000  *  -3.46100000  *
   296       C(ATOM    388  C   THR A  21)    4.91500000  *  11.34700000  *  -3.00100000  *
   297       O(ATOM    389  O   THR A  21)    5.84400000  *  10.72900000  *  -2.47800000  *
   298       C(ATOM    390  CB  THR A  21)    2.93200000  *  10.11300000  *  -2.17800000  *
   299       O(ATOM    391  OG1 THR A  21)    1.96400000  *   9.12400000  *  -2.55200000  *
   300       C(ATOM    392  CG2 THR A  21)    2.28000000  *  11.27400000  *  -1.45900000  *
   301       H(ATOM    393  H   THR A  21)    3.67600000  *   8.50700000  *  -3.95200000  *
   302       H(ATOM    394  HA  THR A  21)    3.01400000  *  11.22500000  *  -4.06400000  *
   303       H(ATOM    395  HB  THR A  21)    3.66600000  *   9.65000000  *  -1.50300000  *
   304       H(ATOM    396  HG1 THR A  21)    2.09200000  *   8.32900000  *  -2.01600000  *
   305       H(ATOM    397 HG21 THR A  21)    1.60600000  *  11.80000000  *  -2.14800000  *
   306       H(ATOM    398 HG22 THR A  21)    3.05600000  *  11.96800000  *  -1.10500000  *
   307       H(ATOM    399 HG23 THR A  21)    1.70600000  *  10.89800000  *  -0.60000000  *
   308       N(ATOM    400  N   PRO A  22)    4.91500000  *  12.68300000  *  -3.10200000  *
   309       C(ATOM    401  CA  PRO A  22)    6.04200000  *  13.42900000  *  -2.60100000  *
   310       C(ATOM    402  C   PRO A  22)    6.38700000  *  13.12200000  *  -1.16000000  *
   311       O(ATOM    403  O   PRO A  22)    5.48000000  *  13.00600000  *  -0.34500000  *
   312       C(ATOM    404  CB  PRO A  22)    5.65500000  *  14.89600000  *  -2.74400000  *
   313       C(ATOM    405  CG  PRO A  22)    4.66100000  *  14.85400000  *  -4.05800000  *
   314       C(ATOM    406  CD  PRO A  22)    3.95700000  *  13.50500000  *  -3.91000000  *
   315       H(ATOM    407  HA  PRO A  22)    6.91500000  *  13.24400000  *  -3.24100000  *
   316       H(ATOM    408  HB2 PRO A  22)    5.11200000  *  15.26600000  *  -1.86300000  *
   317       H(ATOM    409  HB3 PRO A  22)    6.51600000  *  15.53900000  *  -2.94400000  *
   318       H(ATOM    410  HG2 PRO A  22)    3.91900000  *  15.68300000  *  -4.04300000  *
   319       H(ATOM    411  HG3 PRO A  22)    5.21400000  *  14.90300000  *  -5.00200000  *
   320       H(ATOM    412  HD2 PRO A  22)    2.98400000  *  13.62500000  *  -3.38900000  *
   321       H(ATOM    413  HD3 PRO A  22)    3.75200000  *  13.06000000  *  -4.90300000  *
   322       N(ATOM    426  N   GLU A  23)    7.65100000  *  13.19000000  *  -0.86000000  *
   323       C(ATOM    427  CA  GLU A  23)    8.10800000  *  13.00200000  *   0.51300000  *
   324       C(ATOM    428  C   GLU A  23)    7.39400000  *  13.96800000  *   1.45900000  *
   325       O(ATOM    429  O   GLU A  23)    7.06400000  *  13.58500000  *   2.58900000  *
   326       C(ATOM    430  CB  GLU A  23)    9.62000000  *  13.16800000  *   0.68100000  *
   327       C(ATOM    431  CG  GLU A  23)   10.45900000  *  12.14800000  *  -0.04800000  *
   328       C(ATOM    433  CD  GLU A  23)   11.94200000  *  12.20800000  *   0.24200000  *
   329       O(ATOM    435  OE1 GLU A  23)   12.41800000  *  13.33000000  *   0.54100000  *
   330       O(ATOM    437  OE2 GLU A  23)   12.62900000  *  11.21100000  *   0.12800000  *
   331       H(ATOM    439  H   GLU A  23)    8.36100000  *  13.40400000  *  -1.57400000  *
   332       H(ATOM    440  HA  GLU A  23)    7.84200000  *  11.97700000  *   0.80800000  *
   333       H(ATOM    441  HB2 GLU A  23)    9.90200000  *  14.16900000  *   0.32600000  *
   334       H(ATOM    442  HB3 GLU A  23)    9.86000000  *  13.11600000  *   1.75200000  *
   335       H(ATOM    443  HG2 GLU A  23)   10.09400000  *  11.14600000  *   0.21400000  *
   336       H(ATOM    445  HG3 GLU A  23)   10.31000000  *  12.28300000  *  -1.12800000  *
   337       N(ATOM    447  N   ALA A  24)    7.18800000  *  15.22700000  *   1.04100000  *
   338       C(ATOM    448  CA  ALA A  24)    6.61900000  *  16.19500000  *   1.97000000  *
   339       C(ATOM    449  C   ALA A  24)    5.19200000  *  15.81900000  *   2.38700000  *
   340       O(ATOM    450  O   ALA A  24)    4.79500000  *  16.03700000  *   3.53200000  *
   341       C(ATOM    451  CB  ALA A  24)    6.66300000  *  17.59700000  *   1.36300000  *
   342       H(ATOM    452  H   ALA A  24)    7.42200000  *  15.49900000  *   0.09800000  *
   343       H(ATOM    453  HA  ALA A  24)    7.24400000  *  16.20000000  *   2.87400000  *
   344       H(ATOM    454  HB1 ALA A  24)    7.69600000  *  17.84100000  *   1.07900000  *
   345       H(ATOM    455  HB2 ALA A  24)    6.30400000  *  18.32700000  *   2.10100000  *
   346       H(ATOM    456  HB3 ALA A  24)    6.02100000  *  17.63000000  *   0.47200000  *
   347       N(ATOM    457  N   LEU A  25)    4.39800000  *  15.28900000  *   1.44100000  *
   348       C(ATOM    458  CA  LEU A  25)    3.04800000  *  14.82200000  *   1.78100000  *
   349       C(ATOM    459  C   LEU A  25)    3.11300000  *  13.56800000  *   2.64000000  *
   350       O(ATOM    460  O   LEU A  25)    2.33200000  *  13.39600000  *   3.58000000  *
   351       C(ATOM    461  CB  LEU A  25)    2.20900000  *  14.62100000  *   0.51200000  *
   352       C(ATOM    462  CG  LEU A  25)    1.71700000  *  15.92900000  *  -0.10800000  *
   353       C(ATOM    463  CD1 LEU A  25)    1.20700000  *  15.62500000  *  -1.51400000  *
   354       C(ATOM    464  CD2 LEU A  25)    0.59500000  *  16.58300000  *   0.79400000  *
   355       H(ATOM    465  H   LEU A  25)    4.73300000  *  15.19900000  *   0.49500000  *
   356       H(ATOM    466  HA  LEU A  25)    2.56700000  *  15.61200000  *   2.38000000  *
   357       H(ATOM    467  HB2 LEU A  25)    2.80600000  *  14.08000000  *  -0.22500000  *
   358       H(ATOM    468  HB3 LEU A  25)    1.33700000  *  13.99400000  *   0.77000000  *
   359       H(ATOM    469  HG  LEU A  25)    2.56500000  *  16.64200000  *  -0.14100000  *
   360       H(ATOM    470 HD11 LEU A  25)    0.24300000  *  16.14700000  *  -1.68200000  *
   361       H(ATOM    471 HD12 LEU A  25)    1.10500000  *  14.57300000  *  -1.66700000  *
   362       H(ATOM    472 HD13 LEU A  25)    1.94100000  *  16.04900000  *  -2.25300000  *
   363       H(ATOM    473 HD21 LEU A  25)    0.11800000  *  17.39600000  *   0.21600000  *
   364       H(ATOM    474 HD22 LEU A  25)    1.04300000  *  16.99600000  *   1.70100000  *
   365       H(ATOM    475 HD23 LEU A  25)   -0.14500000  *  15.82400000  *   1.04100000  *
   366       N(ATOM    511  N   CYS A  26)    4.02800000  *  12.63400000  *   2.29400000  *
   367       C(ATOM    512  CA  CYS A  26)    4.13700000  *  11.46100000  *   3.15400000  *
   368       C(ATOM    513  C   CYS A  26)    4.60700000  *  11.82300000  *   4.56400000  *
   369       O(ATOM    514  O   CYS A  26)    4.23100000  *  11.13700000  *   5.52700000  *
   370       C(ATOM    515  CB  CYS A  26)    5.03800000  *  10.39500000  *   2.54100000  *
   371       S(ATOM    516  SG  CYS A  26)    4.36300000  *   9.69700000  *   1.00400000  *
   372       H(ATOM    517  H   CYS A  26)    4.60600000  *  12.74300000  *   1.48500000  *
   373       H(ATOM    518  HA  CYS A  26)    3.13200000  *  11.02500000  *   3.24800000  *
   374       H(ATOM    519  HB2 CYS A  26)    6.02300000  *  10.83500000  *   2.33100000  *
   375       H(ATOM    520  HB3 CYS A  26)    5.18100000  *   9.58400000  *   3.26900000  *
   376       N(ATOM    521  N   ALA A  27)    5.39900000  *  12.88900000  *   4.69700000  *
   377       C(ATOM    522  CA  ALA A  27)    5.84800000  *  13.35500000  *   6.01100000  *
   378       C(ATOM    523  C   ALA A  27)    4.66200000  *  13.84600000  *   6.84900000  *
   379       O(ATOM    524  O   ALA A  27)    4.48100000  *  13.36900000  *   7.97300000  *
   380       C(ATOM    525  CB  ALA A  27)    6.89600000  *  14.45300000  *   5.81700000  *
   381       H(ATOM    526  H   ALA A  27)    5.69600000  *  13.38700000  *   3.87100000  *
   382       H(ATOM    527  HA  ALA A  27)    6.32400000  *  12.51300000  *   6.53300000  *
   383       H(ATOM    528  HB1 ALA A  27)    7.72300000  *  14.06600000  *   5.20600000  *
   384       H(ATOM    529  HB2 ALA A  27)    7.28100000  *  14.77000000  *   6.79600000  *
   385       H(ATOM    530  HB3 ALA A  27)    6.43600000  *  15.31200000  *   5.30800000  *
   386       N(ATOM    531  N   THR A  28)    3.85500000  *  14.76600000  *   6.31700000  *
   387       C(ATOM    532  CA  THR A  28)    2.71100000  *  15.20700000  *   7.15400000  *
   388       C(ATOM    533  C   THR A  28)    1.70900000  *  14.07800000  *   7.37200000  *
   389       O(ATOM    534  O   THR A  28)    1.00500000  *  14.07800000  *   8.39400000  *
   390       C(ATOM    535  CB  THR A  28)    2.02400000  *  16.44000000  *   6.55100000  *
   391       O(ATOM    536  OG1 THR A  28)    1.70100000  *  16.14100000  *   5.20100000  *
   392       C(ATOM    537  CG2 THR A  28)    2.89500000  *  17.67900000  *   6.66200000  *
   393       H(ATOM    538  H   THR A  28)    4.00200000  *  15.15300000  *   5.40400000  *
   394       H(ATOM    539  HA  THR A  28)    3.10900000  *  15.48700000  *   8.12500000  *
   395       H(ATOM    540  HB  THR A  28)    1.09000000  *  16.61900000  *   7.10200000  *
   396       H(ATOM    541  HG1 THR A  28)    0.93100000  *  16.65900000  *   4.93100000  *
   397       H(ATOM    542 HG21 THR A  28)    2.37400000  *  18.53400000  *   6.20900000  *
   398       H(ATOM    543 HG22 THR A  28)    3.84400000  *  17.50700000  *   6.13500000  *
   399       H(ATOM    544 HG23 THR A  28)    3.09600000  *  17.89100000  *   7.72100000  *
   400       N(ATOM    545  N   TYR A  29)    1.61500000  *  13.12100000  *   6.44700000  *
   401       C(ATOM    546  CA  TYR A  29)    0.68300000  *  12.00600000  *   6.63800000  *
   402       C(ATOM    547  C   TYR A  29)    1.09800000  *  11.09900000  *   7.79500000  *
   403       O(ATOM    548  O   TYR A  29)    0.23500000  *  10.55300000  *   8.48500000  *
   404       C(ATOM    549  CB  TYR A  29)    0.61000000  *  11.30200000  *   5.32400000  *
   405       C(ATOM    550  CG  TYR A  29)    0.08000000  *   9.85900000  *   5.25700000  *
   406       C(ATOM    553  CD1 TYR A  29)   -1.27000000  *   9.61900000  *   5.52500000  *
   407       C(ATOM    556  CD2 TYR A  29)    0.93900000  *   8.78700000  *   4.96600000  *
   408       C(ATOM    559  CE1 TYR A  29)   -1.75900000  *   8.28700000  *   5.48100000  *
   409       C(ATOM    562  CE2 TYR A  29)    0.45000000  *   7.47300000  *   4.94400000  *
   410       C(ATOM    565  CZ  TYR A  29)   -0.90000000  *   7.23300000  *   5.21200000  *
   411       O(ATOM    568  OH  TYR A  29)   -1.39000000  *   5.95600000  *   5.21200000  *
   412       H(ATOM    571  H   TYR A  29)    2.18700000  *  13.16400000  *   5.61700000  *
   413       H(ATOM    572  HA  TYR A  29)   -0.31000000  *  12.42100000  *   6.86300000  *
   414       H(ATOM    573  HB2 TYR A  29)   -0.01700000  *  11.91300000  *   4.65900000  *
   415       H(ATOM    574  HB3 TYR A  29)    1.62200000  *  11.30000000  *   4.89700000  *
   416       H(ATOM    575  HD1 TYR A  29)   -1.94500000  *  10.45100000  *   5.76900000  *
   417       H(ATOM    578  HD2 TYR A  29)    2.00100000  *   8.97800000  *   4.75500000  *
   418       H(ATOM    581  HE1 TYR A  29)   -2.82600000  *   8.09100000  *   5.66000000  *
   419       H(ATOM    584  HE2 TYR A  29)    1.12500000  *   6.63600000  *   4.71600000  *
   420       H(ATOM    587  HH  TYR A  29)   -0.67600000  *   5.33700000  *   5.00600000  *
   421       N(ATOM    590  N   THR A  30)    2.41200000  *  10.89600000  *   7.97600000  *
   422       C(ATOM    591  CA  THR A  30)    2.92600000  *   9.88500000  *   8.89000000  *
   423       C(ATOM    592  C   THR A  30)    3.53100000  *  10.41600000  *  10.18500000  *
   424       O(ATOM    593  O   THR A  30)    3.70400000  *   9.60900000  *  11.10800000  *
   425       C(ATOM    594  CB  THR A  30)    4.03100000  *   9.05400000  *   8.19700000  *
   426       O(ATOM    595  OG1 THR A  30)    5.12300000  *   9.91000000  *   7.84300000  *
   427       C(ATOM    596  CG2 THR A  30)    3.49900000  *   8.28400000  *   7.00800000  *
   428       H(ATOM    597  H   THR A  30)    3.06700000  *  11.46300000  *   7.46000000  *
   429       H(ATOM    598  HA  THR A  30)    2.10100000  *   9.20700000  *   9.15100000  *
   430       H(ATOM    599  HB  THR A  30)    4.40500000  *   8.32300000  *   8.92800000  *
   431       H(ATOM    600  HG1 THR A  30)    4.85900000  *  10.48100000  *   7.10800000  *
   432       H(ATOM    601 HG21 THR A  30)    4.31500000  *   7.70500000  *   6.55300000  *
   433       H(ATOM    602 HG22 THR A  30)    3.09100000  *   8.98700000  *   6.26900000  *
   434       H(ATOM    603 HG23 THR A  30)    2.70600000  *   7.60000000  *   7.34000000  *
   435       N(ATOM    604  N   GLY A  31)    3.93100000  *  11.68700000  *  10.20300000  *
   436       C(ATOM    605  CA  GLY A  31)    4.73200000  *  12.20900000  *  11.29000000  *
   437       C(ATOM    606  C   GLY A  31)    6.22900000  *  12.14800000  *  11.03900000  *
   438       O(ATOM    607  O   GLY A  31)    6.99500000  *  12.65800000  *  11.86400000  *
   439       H(ATOM    608  H   GLY A  31)    3.67100000  *  12.29800000  *   9.44300000  *
   440       H(ATOM    609  HA2 GLY A  31)    4.44600000  *  13.25500000  *  11.46900000  *
   441       H(ATOM    610  HA3 GLY A  31)    4.50300000  *  11.64000000  *  12.20200000  *
   442       N(ATOM    611  N   CYS A  32)    6.67000000  *  11.51100000  *   9.95200000  *
   443       C(ATOM    612  CA  CYS A  32)    8.06900000  *  11.59500000  *   9.56800000  *
   444       C(ATOM    613  C   CYS A  32)    8.38400000  *  13.04500000  *   9.13000000  *
   445       O(ATOM    614  O   CYS A  32)    7.48800000  *  13.85400000  *   8.91800000  *
   446       C(ATOM    615  CB  CYS A  32)    8.38200000  *  10.62100000  *   8.43500000  *
   447       S(ATOM    616  SG  CYS A  32)    8.01200000  *   8.86900000  *   8.82100000  *
   448       H(ATOM    617  H   CYS A  32)    6.02900000  *  10.96700000  *   9.39400000  *
   449       H(ATOM    618  HA  CYS A  32)    8.69300000  *  11.34200000  *  10.43700000  *
   450       H(ATOM    619  HB2 CYS A  32)    7.80300000  *  10.91500000  *   7.54800000  *
   451       H(ATOM    620  HB3 CYS A  32)    9.44700000  *  10.70800000  *   8.18100000  *
   452       N(ATOM    621  N   ILE A  33)    9.68800000  *  13.31100000  *   8.98800000  *
   453       C(ATOM    622  CA  ILE A  33)   10.17600000  *  14.64500000  *   8.66600000  *
   454       C(ATOM    623  C   ILE A  33)   11.24200000  *  14.53100000  *   7.57800000  *
   455       O(ATOM    624  O   ILE A  33)   11.86800000  *  13.48500000  *   7.38200000  *
   456       C(ATOM    625  CB  ILE A  33)   10.74800000  *  15.35500000  *   9.91700000  *
   457       C(ATOM    626  CG1 ILE A  33)   11.99600000  *  14.65500000  *  10.48400000  *
   458       C(ATOM    627  CG2 ILE A  33)    9.65400000  *  15.48000000  *  10.97100000  *
   459       C(ATOM    628  CD1 ILE A  33)   12.69300000  *  15.43000000  *  11.57900000  *
   460       H(ATOM    629  H   ILE A  33)   10.35500000  *  12.56300000  *   9.10800000  *
   461       H(ATOM    630  HA  ILE A  33)    9.33700000  *  15.24100000  *   8.27900000  *
   462       H(ATOM    631  HB  ILE A  33)   11.04200000  *  16.37100000  *   9.61900000  *
   463       H(ATOM    632 HG12 ILE A  33)   11.70000000  *  13.67300000  *  10.88000000  *
   464       H(ATOM    633 HG13 ILE A  33)   12.70700000  *  14.48300000  *   9.66500000  *
   465       H(ATOM    634 HG21 ILE A  33)    8.77900000  *  15.98100000  *  10.53300000  *
   466       H(ATOM    635 HG22 ILE A  33)   10.02800000  *  16.07100000  *  11.81900000  *
   467       H(ATOM    636 HG23 ILE A  33)    9.36600000  *  14.47900000  *  11.32100000  *
   468       H(ATOM    637 HD11 ILE A  33)   13.56100000  *  14.85700000  *  11.93700000  *
   469       H(ATOM    638 HD12 ILE A  33)   11.99600000  *  15.59600000  *  12.41200000  *
   470       H(ATOM    639 HD13 ILE A  33)   13.03100000  *  16.39800000  *  11.18500000  *
   471       N(ATOM    640  N   ILE A  34)   11.45200000  *  15.66200000  *   6.90500000  *
   472       C(ATOM    641  CA  ILE A  34)   12.51100000  *  15.81500000  *   5.91900000  *
   473       C(ATOM    642  C   ILE A  34)   13.50500000  *  16.81400000  *   6.47300000  *
   474       O(ATOM    643  O   ILE A  34)   13.10300000  *  17.91300000  *   6.89900000  *
   475       C(ATOM    644  CB  ILE A  34)   11.94300000  *  16.41000000  *   4.60100000  *
   476       C(ATOM    646  CG1 ILE A  34)   10.90700000  *  15.50500000  *   3.98800000  *
   477       C(ATOM    648  CG2 ILE A  34)   13.18800000  *  16.56700000  *   3.59700000  *
   478       C(ATOM    650  CD1 ILE A  34)   10.21400000  *  16.12600000  *   2.77400000  *
   479       H(ATOM    652  H   ILE A  34)   10.85000000  *  16.45700000  *   7.09100000  *
   480       H(ATOM    653  HA  ILE A  34)   12.99900000  *  14.86000000  *   5.73200000  *
   481       H(ATOM    654  HB  ILE A  34)   11.54600000  *  17.41900000  *   4.76700000  *
   482       H(ATOM    656 HG12 ILE A  34)   11.37900000  *  14.55800000  *   3.69000000  *
   483       H(ATOM    658 HG13 ILE A  34)   10.16800000  *  15.28500000  *   4.76900000  *
   484       H(ATOM    660 HG21 ILE A  34)   13.92400000  *  17.23900000  *   4.04200000  *
   485       H(ATOM    662 HG22 ILE A  34)   12.80400000  *  17.02100000  *   2.65600000  *
   486       H(ATOM    664 HG23 ILE A  34)   13.60200000  *  15.59500000  *   3.39800000  *
   487       H(ATOM    666 HD11 ILE A  34)    9.43600000  *  15.45100000  *   2.40600000  *
   488       H(ATOM    668 HD12 ILE A  34)   10.94700000  *  16.32200000  *   1.98300000  *
   489       H(ATOM    670 HD13 ILE A  34)    9.74600000  *  17.08700000  *   3.07600000  *
   490       N(ATOM    672  N   ILE A  35)   14.79000000  *  16.45800000  *   6.44200000  *
   491       C(ATOM    673  CA  ILE A  35)   15.84700000  *  17.37600000  *   6.89300000  *
   492       C(ATOM    674  C   ILE A  35)   16.85500000  *  17.52200000  *   5.75000000  *
   493       O(ATOM    675  O   ILE A  35)   17.02400000  *  16.62200000  *   4.92300000  *
   494       C(ATOM    676  CB  ILE A  35)   16.54500000  *  16.89000000  *   8.17600000  *
   495       C(ATOM    677  CG1 ILE A  35)   17.22700000  *  15.53100000  *   7.98700000  *
   496       C(ATOM    678  CG2 ILE A  35)   15.53200000  *  16.85100000  *   9.29900000  *
   497       C(ATOM    679  CD1 ILE A  35)   18.14600000  *  15.15200000  *   9.13800000  *
   498       H(ATOM    680  H   ILE A  35)   15.03200000  *  15.54800000  *   6.12300000  *
   499       H(ATOM    681  HA  ILE A  35)   15.40200000  *  18.36100000  *   7.09200000  *
   500       H(ATOM    682  HB  ILE A  35)   17.31800000  *  17.62400000  *   8.44100000  *
   501       H(ATOM    683 HG12 ILE A  35)   16.45500000  *  14.75700000  *   7.87800000  *
   502       H(ATOM    684 HG13 ILE A  35)   17.81200000  *  15.55300000  *   7.05700000  *
   503       H(ATOM    685 HG21 ILE A  35)   15.09300000  *  17.84900000  *   9.43200000  *
   504       H(ATOM    686 HG22 ILE A  35)   16.02800000  *  16.54100000  *  10.23000000  *
   505       H(ATOM    687 HG23 ILE A  35)   14.73800000  *  16.13200000  *   9.05100000  *
   506       H(ATOM    688 HD11 ILE A  35)   18.61300000  *  14.17900000  *   8.93000000  *
   507       H(ATOM    689 HD12 ILE A  35)   17.56200000  *  15.08700000  *  10.06700000  *
   508       H(ATOM    690 HD13 ILE A  35)   18.92800000  *  15.91700000  *   9.25100000  *
   509       N(ATOM    691  N   PRO A  36)   17.59300000  *  18.64500000  *   5.73300000  *
   510       C(ATOM    692  CA  PRO A  36)   18.58100000  *  18.84500000  *   4.68300000  *
   511       C(ATOM    693  C   PRO A  36)   19.86600000  *  18.07900000  *   4.95300000  *
   512       O(ATOM    694  O   PRO A  36)   20.60500000  *  17.83500000  *   3.98200000  *
   513       C(ATOM    695  CB  PRO A  36)   18.72500000  *  20.36700000  *   4.59600000  *
   514       C(ATOM    697  CG  PRO A  36)   18.40300000  *  20.82900000  *   6.03000000  *
   515       C(ATOM    699  CD  PRO A  36)   17.28600000  *  19.90200000  *   6.47100000  *
   516       H(ATOM    700  HA  PRO A  36)   18.15400000  *  18.48500000  *   3.73600000  *
   517       H(ATOM    701  HB2 PRO A  36)   19.74600000  *  20.65300000  *   4.30700000  *
   518       H(ATOM    703  HB3 PRO A  36)   18.01500000  *  20.79200000  *   3.87300000  *
   519       H(ATOM    705  HG2 PRO A  36)   19.28100000  *  20.72600000  *   6.68300000  *
   520       H(ATOM    707  HG3 PRO A  36)   18.07200000  *  21.87700000  *   6.04100000  *
   521       H(ATOM    709  HD2 PRO A  36)   17.30900000  *  19.74100000  *   7.55800000  *
   522       H(ATOM    710  HD3 PRO A  36)   16.30200000  *  20.30100000  *   6.18600000  *
   523       N(ATOM    711  N   GLY A  37)   20.15400000  *  17.79900000  *   6.20200000  *
   524       C(ATOM    712  CA  GLY A  37)   21.33400000  *  17.01300000  *   6.60800000  *
   525       C(ATOM    713  C   GLY A  37)   21.08200000  *  15.52800000  *   6.41500000  *
   526       O(ATOM    714  O   GLY A  37)   20.09700000  *  15.09700000  *   5.84000000  *
   527       H(ATOM    715  H   GLY A  37)   19.53400000  *  18.13000000  *   6.93300000  *
   528       H(ATOM    716  HA2 GLY A  37)   22.18700000  *  17.35500000  *   5.97900000  *
   529       H(ATOM    717  HA3 GLY A  37)   21.57400000  *  17.25600000  *   7.64700000  *
   530       N(ATOM    718  N   ALA A  38)   22.00800000  *  14.74600000  *   6.97100000  *
   531       C(ATOM    719  CA  ALA A  38)   21.99500000  *  13.32000000  *   6.83700000  *
   532       C(ATOM    720  C   ALA A  38)   21.84300000  *  12.60900000  *   8.19300000  *
   533       O(ATOM    721  O   ALA A  38)   21.80600000  *  11.37600000  *   8.22100000  *
   534       C(ATOM    722  CB  ALA A  38)   23.23500000  *  12.80200000  *   6.10900000  *
   535       H(ATOM    723  H   ALA A  38)   22.75500000  *  15.18300000  *   7.49400000  *
   536       H(ATOM    724  HA  ALA A  38)   21.12000000  *  13.05500000  *   6.22700000  *
   537       H(ATOM    725  HB1 ALA A  38)   23.28900000  *  13.25700000  *   5.11000000  *
   538       H(ATOM    726  HB2 ALA A  38)   23.17200000  *  11.71000000  *   6.01100000  *
   539       H(ATOM    727  HB3 ALA A  38)   24.13400000  *  13.06800000  *   6.68200000  *
   540       N(ATOM    728  N   THR A  39)   21.78700000  *  13.37700000  *   9.29000000  *
   541       C(ATOM    729  CA  THR A  39)   21.84000000  *  12.80100000  *  10.61000000  *
   542       C(ATOM    730  C   THR A  39)   20.53500000  *  13.02600000  *  11.33000000  *
   543       O(ATOM    731  O   THR A  39)   20.25000000  *  14.14900000  *  11.77200000  *
   544       C(ATOM    732  CB  THR A  39)   23.12300000  *  13.27700000  *  11.31800000  *
   545       O(ATOM    734  OG1 THR A  39)   24.24200000  *  13.04600000  *  10.38100000  *
   546       C(ATOM    736  CG2 THR A  39)   23.35100000  *  12.18700000  *  12.36100000  *
   547       H(ATOM    738  H   THR A  39)   21.70600000  *  14.37800000  *   9.19000000  *
   548       H(ATOM    739  HA  THR A  39)   21.94000000  *  11.71500000  *  10.47500000  *
   549       N(ATOM    744  N   CYS A  40)   19.74800000  *  11.98200000  *  11.47700000  *
   550       C(ATOM    745  CA  CYS A  40)   18.46000000  *  12.12000000  *  12.13900000  *
   551       C(ATOM    746  C   CYS A  40)   18.66000000  *  12.20200000  *  13.66900000  *
   552       O(ATOM    747  O   CYS A  40)   19.51500000  *  11.52300000  *  14.22700000  *
   553       C(ATOM    748  CB  CYS A  40)   17.59100000  *  10.91400000  *  11.82500000  *
   554       S(ATOM    749  SG  CYS A  40)   17.12400000  *  10.80700000  *  10.06700000  *
   555       H(ATOM    750  H   CYS A  40)   20.03900000  *  11.08100000  *  11.12800000  *
   556       H(ATOM    751  HA  CYS A  40)   17.96200000  *  13.03300000  *  11.78400000  *
   557       H(ATOM    752  HB2 CYS A  40)   18.13300000  *  10.00000000  *  12.10700000  *
   558       H(ATOM    753  HB3 CYS A  40)   16.67800000  *  10.96300000  *  12.43500000  *
   559       N(ATOM    754  N   PRO A  41)   17.84700000  *  13.00900000  *  14.32900000  *
   560       C(ATOM    755  CA  PRO A  41)   17.97500000  *  13.13900000  *  15.78700000  *
   561       C(ATOM    756  C   PRO A  41)   17.35500000  *  11.96500000  *  16.53000000  *
   562       O(ATOM    757  O   PRO A  41)   16.62700000  *  11.14700000  *  15.96900000  *
   563       C(ATOM    758  CB  PRO A  41)   17.21500000  *  14.45100000  *  16.07000000  *
   564       C(ATOM    759  CG  PRO A  41)   16.10200000  *  14.43000000  *  15.01600000  *
   565       C(ATOM    760  CD  PRO A  41)   16.79900000  *  13.88100000  *  13.76800000  *
   566       H(ATOM    761  HA  PRO A  41)   19.03300000  *  13.24600000  *  16.06500000  *
   567       H(ATOM    762  HB2 PRO A  41)   16.80000000  *  14.45900000  *  17.08800000  *
   568       H(ATOM    763  HB3 PRO A  41)   17.86900000  *  15.32500000  *  15.94100000  *
   569       H(ATOM    764  HG2 PRO A  41)   15.27700000  *  13.77400000  *  15.32800000  *
   570       H(ATOM    765  HG3 PRO A  41)   15.70900000  *  15.44000000  *  14.83700000  *
   571       H(ATOM    766  HD2 PRO A  41)   16.10000000  *  13.30900000  *  13.14300000  *
   572       H(ATOM    767  HD3 PRO A  41)   17.23600000  *  14.69200000  *  13.16900000  *
   573       N(ATOM    768  N   GLY A  42)   17.64300000  *  11.91500000  *  17.85300000  *
   574       C(ATOM    769  CA  GLY A  42)   17.22600000  *  10.77900000  *  18.68300000  *
   575       C(ATOM    770  C   GLY A  42)   15.74600000  *  10.58400000  *  18.83200000  *
   576       O(ATOM    771  O   GLY A  42)   15.33100000  *   9.48500000  *  19.18700000  *
   577       H(ATOM    772  H   GLY A  42)   18.15600000  *  12.67400000  *  18.27600000  *
   578       H(ATOM    773  HA2 GLY A  42)   17.65300000  *   9.86300000  *  18.25300000  *
   579       H(ATOM    774  HA3 GLY A  42)   17.66000000  *  10.90600000  *  19.68400000  *
   580       N(ATOM    775  N   ASP A  43)   14.94000000  *  11.62600000  *  18.61500000  *
   581       C(ATOM    776  CA  ASP A  43)   13.49100000  *  11.51800000  *  18.67600000  *
   582       C(ATOM    777  C   ASP A  43)   12.86600000  *  11.26500000  *  17.29200000  *
   583       O(ATOM    778  O   ASP A  43)   11.63700000  *  11.13100000  *  17.21200000  *
   584       C(ATOM    779  CB  ASP A  43)   13.09100000  *  12.93100000  *  19.13600000  *
   585       C(ATOM    781  CG  ASP A  43)   13.56000000  *  14.34800000  *  18.47200000  *
   586       O(ATOM    783  OD1 ASP A  43)   14.41500000  *  14.36300000  *  17.61200000  *
   587       O(ATOM    785  OD2 ASP A  43)   12.98600000  *  15.45900000  *  18.86800000  *
   588       H(ATOM    787  H   ASP A  43)   15.35200000  *  12.52100000  *  18.39900000  *
   589       H(ATOM    788  HA  ASP A  43)   13.17700000  *  10.75600000  *  19.40300000  *
   590       H(ATOM    789  HB2 ASP A  43)   11.99200000  *  12.94700000  *  19.11800000  *
   591       H(ATOM    791  HB3 ASP A  43)   13.38000000  *  12.99000000  *  20.19400000  *
   592       N(ATOM    793  N   TYR A  44)   13.71100000  *  11.17500000  *  16.26000000  *
   593       C(ATOM    794  CA  TYR A  44)   13.26700000  *  10.72200000  *  14.92600000  *
   594       C(ATOM    795  C   TYR A  44)   14.25100000  *   9.66100000  *  14.43900000  *
   595       O(ATOM    796  O   TYR A  44)   14.93100000  *   9.81200000  *  13.42600000  *
   596       C(ATOM    797  CB  TYR A  44)   13.13200000  *  11.88300000  *  13.92400000  *
   597       C(ATOM    798  CG  TYR A  44)   11.97800000  *  12.79700000  *  14.25100000  *
   598       C(ATOM    799  CD1 TYR A  44)   12.08300000  *  13.83500000  *  15.17900000  *
   599       C(ATOM    800  CD2 TYR A  44)   10.76500000  *  12.58500000  *  13.60800000  *
   600       C(ATOM    801  CE1 TYR A  44)   10.98900000  *  14.64300000  *  15.46200000  *
   601       C(ATOM    802  CE2 TYR A  44)    9.64900000  *  13.38000000  *  13.88300000  *
   602       C(ATOM    803  CZ  TYR A  44)    9.77000000  *  14.41000000  *  14.81900000  *
   603       O(ATOM    804  OH  TYR A  44)    8.71600000  *  15.22300000  *  15.10600000  *
   604       H(ATOM    805  H   TYR A  44)   14.67200000  *  11.39100000  *  16.41000000  *
   605       H(ATOM    806  HA  TYR A  44)   12.27900000  *  10.27500000  *  15.02500000  *
   606       H(ATOM    807  HB2 TYR A  44)   14.06300000  *  12.46200000  *  13.92000000  *
   607       H(ATOM    808  HB3 TYR A  44)   12.98700000  *  11.45900000  *  12.92400000  *
   608       H(ATOM    809  HD1 TYR A  44)   13.03900000  *  14.01500000  *  15.69000000  *
   609       H(ATOM    810  HD2 TYR A  44)   10.68200000  *  11.77700000  *  12.86800000  *
   610       H(ATOM    811  HE1 TYR A  44)   11.08100000  *  15.46200000  *  16.18900000  *
   611       H(ATOM    812  HE2 TYR A  44)    8.69300000  *  13.19700000  *  13.37200000  *
   612       H(ATOM    813  HH  TYR A  44)    7.94600000  *  14.94500000  *  14.59000000  *
   613       N(ATOM    814  N   ALA A  45)   14.35300000  *   8.61200000  *  15.27400000  *
   614       C(ATOM    815  CA  ALA A  45)   15.41100000  *   7.63300000  *  15.17100000  *
   615       C(ATOM    816  C   ALA A  45)   15.17600000  *   6.50400000  *  14.19600000  *
   616       O(ATOM    817  O   ALA A  45)   16.09100000  *   5.69500000  *  13.99100000  *
   617       C(ATOM    818  CB  ALA A  45)   15.63100000  *   7.05500000  *  16.57400000  *
   618       H(ATOM    819  H   ALA A  45)   13.65700000  *   8.49900000  *  15.99600000  *
   619       H(ATOM    820  HA  ALA A  45)   16.33000000  *   8.15600000  *  14.87100000  *
   620       H(ATOM    821  HB1 ALA A  45)   15.81100000  *   7.87400000  *  17.28400000  *
   621       H(ATOM    822  HB2 ALA A  45)   16.50100000  *   6.38300000  *  16.56100000  *
   622       H(ATOM    823  HB3 ALA A  45)   14.73900000  *   6.49300000  *  16.88300000  *
   623       N(ATOM    824  N   ASN A  46)   13.96800000  *   6.42800000  *  13.64400000  *
   624       C(ATOM    825  CA  ASN A  46)   13.54500000  *   5.34700000  *  12.78000000  *
   625       C(ATOM    826  C   ASN A  46)   13.31400000  *   5.79800000  *  11.33100000  *
   626       O(ATOM    827  O   ASN A  46)   13.72200000  *   6.91400000  *  10.97700000  *
   627       C(ATOM    828  CB  ASN A  46)   12.28900000  *   4.68500000  *  13.37900000  *
   628       C(ATOM    829  CG  ASN A  46)   12.55200000  *   4.05800000  *  14.70800000  *
   629       O(ATOM    831  OD1 ASN A  46)   11.88400000  *   4.46400000  *  15.64400000  *
   630       N(ATOM    833  ND2 ASN A  46)   13.52700000  *   3.16200000  *  14.79900000  *
   631       O(ATOM    835  OXT ASN A  46)   12.72000000  *   4.98200000  *  10.59000000  *
   632       H(ATOM    836  H   ASN A  46)   13.30800000  *   7.16700000  *  13.83900000  *
   633       H(ATOM    837  HA  ASN A  46)   14.34700000  *   4.59500000  *  12.77100000  *
   634       H(ATOM    838  HB2 ASN A  46)   11.50100000  *   5.44200000  *  13.48800000  *
   635       H(ATOM    839  HB3 ASN A  46)   11.92300000  *   3.91500000  *  12.68400000  *
   636       H(ATOM    840 HD21 ASN A  46)   13.76400000  *   2.76200000  *  15.69500000  *
   637       H(ATOM    842 HD22 ASN A  46)   14.03200000  *   2.88000000  *  13.97200000  *


 General Reference for PM7:
 "Optimization of Parameters for Semiempirical Methods VI: More Modifications to the 
 NDDO Approximations and Re-optimization of Parameters", J. J. P. Stewart, J. Mol. Mod., 1:32, 19 (2013)
 https://link.springer.com/article/10.1007/s00894-012-1667-x

           Empirical Formula: C202 H310 N55 O64 S6  =   637 atoms

 GEOMETRY OF SYSTEM SUPPLIED
*HEADER    PLANT PROTEIN                           02-MAR-00   1EJG
*TITLE     CRAMBIN AT ULTRA-HIGH RESOLUTION: VALENCE ELECTRON DENSITY.
*COMPND    MOL_ID: 1;
*COMPND   2 MOLECULE: CRAMBIN (PRO22,SER22/LEU25,ILE25);
*COMPND   3 CHAIN: A;
*COMPND   4 FRAGMENT: CRAMBIN
*SOURCE    MOL_ID: 1;
*SOURCE   2 ORGANISM_SCIENTIFIC: CRAMBE HISPANICA SUBSP. ABYSSINICA;
*SOURCE   3 ORGANISM_TAXID: 3721;
*SOURCE   4 STRAIN: SUBSP. ABYSSINICA
*KEYWDS    VALENCE ELECTRON DENSITY, MULTI-SUBSTATE, MULTIPOLE REFINEMENT, PLANT
*KEYWDS   2 PROTEIN
*EXPDTA    X-RAY DIFFRACTION
*AUTHOR    C.JELSCH,M.M.TEETER,V.LAMZIN,V.PICHON-LESME,B.BLESSING,C.LECOMTE
*REVDAT   6   05-FEB-14 1EJG    1       ATOM   CONECT
*REVDAT   5   13-JUL-11 1EJG    1       VERSN
*REVDAT   4   24-FEB-09 1EJG    1       VERSN
*REVDAT   3   01-APR-03 1EJG    1       JRNL
*REVDAT   2   10-MAY-00 1EJG    1       COMPND ATOM
*REVDAT   1   05-APR-00 1EJG    0
*JRNL        AUTH   C.JELSCH,M.M.TEETER,V.LAMZIN,V.PICHON-PESME,R.H.BLESSING,
*JRNL        AUTH 2 C.LECOMTE
*JRNL        TITL   ACCURATE PROTEIN CRYSTALLOGRAPHY AT ULTRA-HIGH RESOLUTION:
*JRNL        TITL 2 VALENCE ELECTRON DISTRIBUTION IN CRAMBIN.
*JRNL        REF    PROC.NATL.ACAD.SCI.USA        V.  97  3171 2000
*JRNL        REFN                   ISSN 0027-8424
*JRNL        PMID   10737790
*JRNL        DOI    10.1073/PNAS.97.7.3171
*REMARK   2
*REMARK   2 RESOLUTION.    0.54 ANGSTROMS.
*REMARK   3
*REMARK   3 REFINEMENT.
*REMARK   3   PROGRAM     : MOLLY
*REMARK   3
*REMARK   3  DATA USED IN REFINEMENT.
*REMARK   3   RESOLUTION RANGE HIGH (ANGSTROMS) : 0.54
*REMARK   3   RESOLUTION RANGE LOW  (ANGSTROMS) : 22.37
*REMARK   3   DATA CUTOFF            (SIGMA(F)) : 0.000
*REMARK   3   DATA CUTOFF HIGH         (ABS(F)) : NULL
*REMARK   3   DATA CUTOFF LOW          (ABS(F)) : NULL
*REMARK   3   COMPLETENESS (WORKING+TEST)   (%) : 97.6
*REMARK   3   NUMBER OF REFLECTIONS             : 100989
*REMARK   3
*REMARK   3  FIT TO DATA USED IN REFINEMENT.
*REMARK   3   CROSS-VALIDATION METHOD          : NULL
*REMARK   3   FREE R VALUE TEST SET SELECTION  : 1 REFLECTION OUT OF 20
*REMARK   3   R VALUE            (WORKING SET) : 0.090
*REMARK   3   FREE R VALUE                     : 0.094
*REMARK   3   FREE R VALUE TEST SET SIZE   (%) : 5.000
*REMARK   3   FREE R VALUE TEST SET COUNT      : 11220
*REMARK   3   ESTIMATED ERROR OF FREE R VALUE  : NULL
*REMARK   3
*REMARK   3  FIT IN THE HIGHEST RESOLUTION BIN.
*REMARK   3   TOTAL NUMBER OF BINS USED           : NULL
*REMARK   3   BIN RESOLUTION RANGE HIGH       (A) : 0.54
*REMARK   3   BIN RESOLUTION RANGE LOW        (A) : 0.57
*REMARK   3   BIN COMPLETENESS (WORKING+TEST) (%) : NULL
*REMARK   3   REFLECTIONS IN BIN    (WORKING SET) : 17547
*REMARK   3   BIN R VALUE           (WORKING SET) : 0.1970
*REMARK   3   BIN FREE R VALUE                    : 0.2050
*REMARK   3   BIN FREE R VALUE TEST SET SIZE  (%) : 5.00
*REMARK   3   BIN FREE R VALUE TEST SET COUNT     : NULL
*REMARK   3   ESTIMATED ERROR OF BIN FREE R VALUE : NULL
*REMARK   3
*REMARK   3  NUMBER OF NON-HYDROGEN ATOMS USED IN REFINEMENT.
*REMARK   3   PROTEIN ATOMS            : 340
*REMARK   3   NUCLEIC ACID ATOMS       : 0
*REMARK   3   HETEROGEN ATOMS          : 0
*REMARK   3   SOLVENT ATOMS            : 0
*REMARK   3
*REMARK   3  B VALUES.
*REMARK   3   FROM WILSON PLOT           (A**2) : 2.80
*REMARK   3   MEAN B VALUE      (OVERALL, A**2) : NULL
*REMARK   3   OVERALL ANISOTROPIC B VALUE.
*REMARK   3    B11 (A**2) : NULL
*REMARK   3    B22 (A**2) : NULL
*REMARK   3    B33 (A**2) : NULL
*REMARK   3    B12 (A**2) : NULL
*REMARK   3    B13 (A**2) : NULL
*REMARK   3    B23 (A**2) : NULL
*REMARK   3
*REMARK   3  ESTIMATED COORDINATE ERROR.
*REMARK   3   ESD FROM LUZZATI PLOT        (A) : NULL
*REMARK   3   ESD FROM SIGMAA              (A) : NULL
*REMARK   3   LOW RESOLUTION CUTOFF        (A) : NULL
*REMARK   3
*REMARK   3  CROSS-VALIDATED ESTIMATED COORDINATE ERROR.
*REMARK   3   ESD FROM C-V LUZZATI PLOT    (A) : NULL
*REMARK   3   ESD FROM C-V SIGMAA          (A) : NULL
*REMARK   3
*REMARK   3  RMS DEVIATIONS FROM IDEAL VALUES.
*REMARK   3   BOND LENGTHS                 (A) : 0.023
*REMARK   3   BOND ANGLES            (DEGREES) : 2.700
*REMARK   3   DIHEDRAL ANGLES        (DEGREES) : NULL
*REMARK   3   IMPROPER ANGLES        (DEGREES) : NULL
*REMARK   3
*REMARK   3  ISOTROPIC THERMAL MODEL : NULL
*REMARK   3
*REMARK   3  ISOTROPIC THERMAL FACTOR RESTRAINTS.    RMS    SIGMA
*REMARK   3   MAIN-CHAIN BOND              (A**2) : NULL  ; NULL
*REMARK   3   MAIN-CHAIN ANGLE             (A**2) : NULL  ; NULL
*REMARK   3   SIDE-CHAIN BOND              (A**2) : NULL  ; NULL
*REMARK   3   SIDE-CHAIN ANGLE             (A**2) : NULL  ; NULL
*REMARK   3
*REMARK   3  NCS MODEL : NULL
*REMARK   3
*REMARK   3  NCS RESTRAINTS.                         RMS   SIGMA/WEIGHT
*REMARK   3   GROUP  1  POSITIONAL            (A) : NULL  ; NULL
*REMARK   3   GROUP  1  B-FACTOR           (A**2) : NULL  ; NULL
*REMARK   3
*REMARK   3  PARAMETER FILE  1  : SHELXL97 DICTIONARY
*REMARK   3  PARAMETER FILE  2  : NULL
*REMARK   3  TOPOLOGY FILE  1   : NULL
*REMARK   3  TOPOLOGY FILE  2   : NULL
*REMARK   3
*REMARK   3  OTHER REFINEMENT REMARKS: SHELX97 FOLLOWED BY MOLLY (N.K.HANSEN &
*REMARK   3  P.COPPENS ACTA CRYSTALLOGR. A34, 909-921) REFINEMENT OF ELECTRON
*REMARK   3  DENSITY.
*REMARK   4
*REMARK   4 1EJG COMPLIES WITH FORMAT V. 3.30, 13-JUL-11
*REMARK 100
*REMARK 100 THIS ENTRY HAS BEEN PROCESSED BY RCSB ON 06-MAR-00.
*REMARK 100 THE RCSB ID CODE IS RCSB010638.
*REMARK 200
*REMARK 200 EXPERIMENTAL DETAILS
*REMARK 200  EXPERIMENT TYPE                : X-RAY DIFFRACTION
*REMARK 200  DATE OF DATA COLLECTION        : 31-MAY-97
*REMARK 200  TEMPERATURE           (KELVIN) : 100.0
*REMARK 200  PH                             : 7
*REMARK 200  NUMBER OF CRYSTALS USED        : 1
*REMARK 200
*REMARK 200  SYNCHROTRON              (Y/N) : Y
*REMARK 200  RADIATION SOURCE               : EMBL/DESY, HAMBURG
*REMARK 200  BEAMLINE                       : BW7A
*REMARK 200  X-RAY GENERATOR MODEL          : NULL
*REMARK 200  MONOCHROMATIC OR LAUE    (M/L) : M
*REMARK 200  WAVELENGTH OR RANGE        (A) : 0.54
*REMARK 200  MONOCHROMATOR                  : NULL
*REMARK 200  OPTICS                         : NULL
*REMARK 200
*REMARK 200  DETECTOR TYPE                  : IMAGE PLATE
*REMARK 200  DETECTOR MANUFACTURER          : MARRESEARCH
*REMARK 200  INTENSITY-INTEGRATION SOFTWARE : SOFTWARE AT SYNCHROTRON
*REMARK 200  DATA SCALING SOFTWARE          : DREAR
*REMARK 200
*REMARK 200  NUMBER OF UNIQUE REFLECTIONS   : 79868
*REMARK 200  RESOLUTION RANGE HIGH      (A) : 0.540
*REMARK 200  RESOLUTION RANGE LOW       (A) : 50.000
*REMARK 200  REJECTION CRITERIA  (SIGMA(I)) : 3.000
*REMARK 200
*REMARK 200 OVERALL.
*REMARK 200  COMPLETENESS FOR RANGE     (%) : 97.6
*REMARK 200  DATA REDUNDANCY                : 4.500
*REMARK 200  R MERGE                    (I) : 0.05500
*REMARK 200  R SYM                      (I) : NULL
*REMARK 200  <I/SIGMA(I)> FOR THE DATA SET  : 8.2000
*REMARK 200
*REMARK 200 IN THE HIGHEST RESOLUTION SHELL.
*REMARK 200  HIGHEST RESOLUTION SHELL, RANGE HIGH (A) : 0.54
*REMARK 200  HIGHEST RESOLUTION SHELL, RANGE LOW  (A) : 0.55
*REMARK 200  COMPLETENESS FOR SHELL     (%) : 100.0
*REMARK 200  DATA REDUNDANCY IN SHELL       : 3.80
*REMARK 200  R MERGE FOR SHELL          (I) : 0.14760
*REMARK 200  R SYM FOR SHELL            (I) : NULL
*REMARK 200  <I/SIGMA(I)> FOR SHELL         : NULL
*REMARK 200
*REMARK 200 DIFFRACTION PROTOCOL: SINGLE WAVELENGTH
*REMARK 200 METHOD USED TO DETERMINE THE STRUCTURE: NULL
*REMARK 200 SOFTWARE USED: ALREADY SOLVED
*REMARK 200 STARTING MODEL: NULL
*REMARK 200
*REMARK 200 REMARK: NULL
*REMARK 280
*REMARK 280 CRYSTAL
*REMARK 280 SOLVENT CONTENT, VS   (%): 30.00
*REMARK 280 MATTHEWS COEFFICIENT, VM (ANGSTROMS**3/DA): 1.40
*REMARK 280
*REMARK 280 CRYSTALLIZATION CONDITIONS: THE PROTEIN (40 MG/ML IN 80% ETHANOL)
*REMARK 280  IS EQUILIBRATED AGAINST 60% ETHANOL. NOT BUFFERED., PH 7, VAPOR
*REMARK 280  DIFFUSION, SITTING DROP, TEMPERATURE 293K
*REMARK 290
*REMARK 290 CRYSTALLOGRAPHIC SYMMETRY
*REMARK 290 SYMMETRY OPERATORS FOR SPACE GROUP: P 1 21 1
*REMARK 290
*REMARK 290      SYMOP   SYMMETRY
*REMARK 290     NNNMMM   OPERATOR
*REMARK 290       1555   X,Y,Z
*REMARK 290       2555   -X,Y+1/2,-Z
*REMARK 290
*REMARK 290     WHERE NNN -> OPERATOR NUMBER
*REMARK 290           MMM -> TRANSLATION VECTOR
*REMARK 290
*REMARK 290 CRYSTALLOGRAPHIC SYMMETRY TRANSFORMATIONS
*REMARK 290 THE FOLLOWING TRANSFORMATIONS OPERATE ON THE ATOM/HETATM
*REMARK 290 RECORDS IN THIS ENTRY TO PRODUCE CRYSTALLOGRAPHICALLY
*REMARK 290 RELATED MOLECULES.
*REMARK 290   SMTRY1   1  1.000000  0.000000  0.000000        0.00000
*REMARK 290   SMTRY2   1  0.000000  1.000000  0.000000        0.00000
*REMARK 290   SMTRY3   1  0.000000  0.000000  1.000000        0.00000
*REMARK 290   SMTRY1   2 -1.000000  0.000000  0.000000        0.00000
*REMARK 290   SMTRY2   2  0.000000  1.000000  0.000000        9.24900
*REMARK 290   SMTRY3   2  0.000000  0.000000 -1.000000        0.00000
*REMARK 290
*REMARK 290 REMARK: NULL
*REMARK 300
*REMARK 300 BIOMOLECULE: 1
*REMARK 300 SEE REMARK 350 FOR THE AUTHOR PROVIDED AND/OR PROGRAM
*REMARK 300 GENERATED ASSEMBLY INFORMATION FOR THE STRUCTURE IN
*REMARK 300 THIS ENTRY. THE REMARK MAY ALSO PROVIDE INFORMATION ON
*REMARK 300 BURIED SURFACE AREA.
*REMARK 350
*REMARK 350 COORDINATES FOR A COMPLETE MULTIMER REPRESENTING THE KNOWN
*REMARK 350 BIOLOGICALLY SIGNIFICANT OLIGOMERIZATION STATE OF THE
*REMARK 350 MOLECULE CAN BE GENERATED BY APPLYING BIOMT TRANSFORMATIONS
*REMARK 350 GIVEN BELOW.  BOTH NON-CRYSTALLOGRAPHIC AND
*REMARK 350 CRYSTALLOGRAPHIC OPERATIONS ARE GIVEN.
*REMARK 350
*REMARK 350 BIOMOLECULE: 1
*REMARK 350 AUTHOR DETERMINED BIOLOGICAL UNIT: MONOMERIC
*REMARK 350 APPLY THE FOLLOWING TO CHAINS: A
*REMARK 350   BIOMT1   1  1.000000  0.000000  0.000000        0.00000
*REMARK 350   BIOMT2   1  0.000000  1.000000  0.000000        0.00000
*REMARK 350   BIOMT3   1  0.000000  0.000000  1.000000        0.00000
*REMARK 500
*REMARK 500 GEOMETRY AND STEREOCHEMISTRY
*REMARK 500 SUBTOPIC: COVALENT BOND ANGLES
*REMARK 500
*REMARK 500 THE STEREOCHEMICAL PARAMETERS OF THE FOLLOWING RESIDUES
*REMARK 500 HAVE VALUES WHICH DEVIATE FROM EXPECTED VALUES BY MORE
*REMARK 500 THAN 6*RMSD (M=MODEL NUMBER; RES=RESIDUE NAME; C=CHAIN
*REMARK 500 IDENTIFIER; SSEQ=SEQUENCE NUMBER; I=INSERTION CODE).
*REMARK 500
*REMARK 500 STANDARD TABLE:
*REMARK 500 FORMAT: (10X,I3,1X,A3,1X,A1,I4,A1,3(1X,A4,2X),12X,F5.1)
*REMARK 500
*REMARK 500 EXPECTED VALUES PROTEIN: ENGH AND HUBER, 1999
*REMARK 500 EXPECTED VALUES NUCLEIC ACID: CLOWNEY ET AL 1996
*REMARK 500
*REMARK 500  M RES CSSEQI ATM1   ATM2   ATM3
*REMARK 500    THR A  39   CA  -  CB  -  CG2 ANGL. DEV. =  -9.8 DEGREES
*REMARK 500    ASP A  43   CA  -  CB  -  CG  ANGL. DEV. =  13.5 DEGREES
*REMARK 500
*REMARK 500 REMARK: NULL
*REMARK 900
*REMARK 900 RELATED ENTRIES
*REMARK 900 RELATED ID: 1CBN   RELATED DB: PDB
*REMARK 900 CRAMBIN AT 130K AND 0.83 A. TWO SEQUENCE FORMS.
*REMARK 900 RELATED ID: 1CRN   RELATED DB: PDB
*REMARK 900 CRAMBIN AT 1.5 A AND ROOM TEMPERATURE. TWO SEQUENCE FORMS.
*REMARK 900 RELATED ID: 1AB1   RELATED DB: PDB
*REMARK 900 CRAMBIN AT 150 K IN THE PURE SER22/ILE25 SEQUENCE FORMS.
*REMARK 900 RELATED ID: 1CNR   RELATED DB: PDB
*REMARK 900 CRAMBIN AT 150K AND 1.05 A RESOLUTION. PURE PRO22/LEU25
*REMARK 900 FORM OF CRAMBIN.
*DBREF  1EJG A    1    46  UNP    P01542   CRAM_CRAAB       1     46
*SEQRES   1 A   46  THR THR CYS CYS PRO SER ILE VAL ALA ARG SER ASN PHE
*SEQRES   2 A   46  ASN VAL CYS ARG LEU PRO GLY THR PRO GLU ALA LEU CYS
*SEQRES   3 A   46  ALA THR TYR THR GLY CYS ILE ILE ILE PRO GLY ALA THR
*SEQRES   4 A   46  CYS PRO GLY ASP TYR ALA ASN
*HELIX    1   1 SER A    6  LEU A   18  1                                  13
*HELIX    2   2 PRO A   22  GLY A   31  1                                  10
*SHEET    1   A 2 THR A   2  CYS A   3  0
*SHEET    2   A 2 ILE A  33  ILE A  34 -1  O  ILE A  33   N  CYS A   3
*CRYST1   40.824   18.498   22.371  90.00  90.47  90.00 P 1 21 1      2
*ORIGX1      1.000000  0.000000  0.000000        0.00000
*ORIGX2      0.000000  1.000000  0.000000        0.00000
*ORIGX3      0.000000  0.000000  1.000000        0.00000
*SCALE1      0.024495  0.000000  0.000201        0.00000
*SCALE2      0.000000  0.054060  0.000000        0.00000
*SCALE3      0.000000  0.000000  0.044702        0.00000
 ADD-H PDBOUT   CHAINS=(A)  START_RES=(1A)
 From PDB file: 'PDB1EJG'

  N(ATOM      1  N   THR A   1)  16.88500000 +1  14.07800000 +1   3.42700000 +1
  C(ATOM      3  CA  THR A   1)  16.93800000 +1  12.83400000 +1   4.23400000 +1
  C(ATOM      5  C   THR A   1)  15.64200000 +1  12.76000000 +1   4.98500000 +1
  O(ATOM      6  O   THR A   1)  15.15000000 +1  13.81800000 +1   5.43900000 +1
  C(ATOM      7  CB  THR A   1)  18.10300000 +1  12.87500000 +1   5.20200000 +1
  O(ATOM      9  OG1 THR A   1)  19.25600000 +1  13.00400000 +1   4.40100000 +1
  C(ATOM     11  CG2 THR A   1)  18.17300000 +1  11.58200000 +1   6.05500000 +1
  H(ATOM     13  H1  THR A   1)  17.70500000 +1  14.13900000 +1   2.84000000 +1
  H(ATOM     15  H2  THR A   1)  16.87900000 +1  14.89400000 +1   4.04900000 +1
  H(ATOM     17  H3  THR A   1)  16.05700000 +1  14.10500000 +1   2.85900000 +1
  H(ATOM     19  HA  THR A   1)  17.01300000 +1  11.96900000 +1   3.57700000 +1
  H(ATOM     21  HB  THR A   1)  17.99500000 +1  13.75800000 +1   5.84800000 +1
  H(ATOM     23  HG1 THR A   1)  19.85200000 +1  13.64400000 +1   4.80300000 +1
  H(ATOM     25 HG21 THR A   1)  19.02400000 +1  11.65900000 +1   6.73700000 +1
  H(ATOM     27 HG22 THR A   1)  18.29000000 +1  10.71800000 +1   5.39600000 +1
  H(ATOM     29 HG23 THR A   1)  17.24100000 +1  11.48100000 +1   6.63600000 +1
  N(ATOM     31  N   THR A   2)  15.06900000 +1  11.58600000 +1   5.13400000 +1
  C(ATOM     32  CA  THR A   2)  13.85600000 +1  11.49800000 +1   5.93200000 +1
  C(ATOM     34  C   THR A   2)  14.17200000 +1  10.75700000 +1   7.22100000 +1
  O(ATOM     35  O   THR A   2)  15.00600000 +1   9.85700000 +1   7.31500000 +1
  C(ATOM     36  CB  THR A   2)  12.78500000 +1  10.74200000 +1   5.12900000 +1
  O(ATOM     38  OG1 THR A   2)  13.31200000 +1   9.43700000 +1   4.77000000 +1
  C(ATOM     40  CG2 THR A   2)  12.31500000 +1  11.61200000 +1   3.97300000 +1
  H(ATOM     42  H   THR A   2)  15.46500000 +1  10.76900000 +1   4.69400000 +1
  H(ATOM     43  HA  THR A   2)  13.50800000 +1  12.53200000 +1   6.15400000 +1
  H(ATOM     45  HB  THR A   2)  11.92500000 +1  10.59400000 +1   5.81900000 +1
  H(ATOM     47  HG1 THR A   2)  14.20000000 +1   9.34500000 +1   5.12500000 +1
  H(ATOM     49 HG21 THR A   2)  11.57000000 +1  11.06700000 +1   3.37300000 +1
  H(ATOM     51 HG22 THR A   2)  13.15900000 +1  11.90100000 +1   3.34700000 +1
  H(ATOM     53 HG23 THR A   2)  11.82800000 +1  12.53900000 +1   4.36800000 +1
  N(ATOM     55  N   CYS A   3)  13.43800000 +1  11.19200000 +1   8.26400000 +1
  C(ATOM     56  CA  CYS A   3)  13.60700000 +1  10.67500000 +1   9.60000000 +1
  C(ATOM     57  C   CYS A   3)  12.21000000 +1  10.41300000 +1  10.16400000 +1
  O(ATOM     58  O   CYS A   3)  11.32400000 +1  11.24600000 +1   9.99600000 +1
  C(ATOM     59  CB  CYS A   3)  14.30000000 +1  11.70300000 +1  10.52300000 +1
  S(ATOM     60  SG  CYS A   3)  15.84600000 +1  12.37400000 +1   9.88000000 +1
  H(ATOM     61  H   CYS A   3)  12.74300000 +1  11.90600000 +1   8.10400000 +1
  H(ATOM     62  HA  CYS A   3)  14.18500000 +1   9.74100000 +1   9.57300000 +1
  H(ATOM     63  HB2 CYS A   3)  13.60500000 +1  12.53500000 +1  10.70300000 +1
  H(ATOM     64  HB3 CYS A   3)  14.50200000 +1  11.22400000 +1  11.49100000 +1
  N(ATOM     65  N   CYS A   4)  12.01500000 +1   9.27700000 +1  10.85000000 +1
  C(ATOM     66  CA  CYS A   4)  10.68100000 +1   8.94400000 +1  11.32600000 +1
  C(ATOM     67  C   CYS A   4)  10.68300000 +1   8.74500000 +1  12.83800000 +1
  O(ATOM     68  O   CYS A   4)  11.65100000 +1   8.27200000 +1  13.41800000 +1
  C(ATOM     69  CB  CYS A   4)  10.15500000 +1   7.68400000 +1  10.61700000 +1
  S(ATOM     70  SG  CYS A   4)   9.83300000 +1   7.93400000 +1   8.84300000 +1
  H(ATOM     71  H   CYS A   4)  12.78900000 +1   8.65700000 +1  11.03500000 +1
  H(ATOM     72  HA  CYS A   4)  10.00900000 +1   9.78100000 +1  11.08800000 +1
  H(ATOM     73  HB2 CYS A   4)  10.89100000 +1   6.87600000 +1  10.73400000 +1
  H(ATOM     74  HB3 CYS A   4)   9.22500000 +1   7.36200000 +1  11.10500000 +1
  N(ATOM     75  N   PRO A   5)   9.54600000 +1   9.09300000 +1  13.47500000 +1
  C(ATOM     76  CA  PRO A   5)   9.50000000 +1   9.07900000 +1  14.93700000 +1
  C(ATOM     77  C   PRO A   5)   9.37300000 +1   7.68800000 +1  15.54600000 +1
  O(ATOM     78  O   PRO A   5)   9.64000000 +1   7.54200000 +1  16.74800000 +1
  C(ATOM     79  CB  PRO A   5)   8.26700000 +1   9.93900000 +1  15.26700000 +1
  C(ATOM     80  CG  PRO A   5)   7.36400000 +1   9.74200000 +1  14.04400000 +1
  C(ATOM     81  CD  PRO A   5)   8.36000000 +1   9.74800000 +1  12.89800000 +1
  H(ATOM     82  HA  PRO A   5)  10.40100000 +1   9.56800000 +1  15.33400000 +1
  H(ATOM     83  HB2 PRO A   5)   7.77300000 +1   9.58700000 +1  16.18400000 +1
  H(ATOM     84  HB3 PRO A   5)   8.54200000 +1  10.99500000 +1  15.39000000 +1
  H(ATOM     85  HG2 PRO A   5)   6.82300000 +1   8.78700000 +1  14.09800000 +1
  H(ATOM     86  HG3 PRO A   5)   6.64000000 +1  10.56300000 +1  13.94700000 +1
  H(ATOM     87  HD2 PRO A   5)   7.97600000 +1   9.18300000 +1  12.03700000 +1
  H(ATOM     88  HD3 PRO A   5)   8.59000000 +1  10.77400000 +1  12.58000000 +1
  N(ATOM     89  N   SER A   6)   8.92600000 +1   6.70500000 +1  14.75600000 +1
  C(ATOM     90  CA  SER A   6)   8.75500000 +1   5.34700000 +1  15.23100000 +1
  C(ATOM     91  C   SER A   6)   8.83200000 +1   4.42900000 +1  14.00800000 +1
  O(ATOM     92  O   SER A   6)   8.75700000 +1   4.86700000 +1  12.86000000 +1
  C(ATOM     93  CB  SER A   6)   7.40900000 +1   5.16100000 +1  15.93000000 +1
  O(ATOM     94  OG  SER A   6)   6.37100000 +1   5.26500000 +1  14.95300000 +1
  H(ATOM     95  H   SER A   6)   8.70000000 +1   6.91600000 +1  13.79600000 +1
  H(ATOM     96  HA  SER A   6)   9.56700000 +1   5.09800000 +1  15.92800000 +1
  H(ATOM     97  HB2 SER A   6)   7.37100000 +1   4.17600000 +1  16.41500000 +1
  H(ATOM     98  HB3 SER A   6)   7.27700000 +1   5.93200000 +1  16.70200000 +1
  H(ATOM     99  HG  SER A   6)   5.56000000 +1   4.87000000 +1  15.30000000 +1
  N(ATOM    100  N   ILE A   7)   8.93600000 +1   3.12900000 +1  14.30200000 +1
  C(ATOM    101  CA  ILE A   7)   8.82900000 +1   2.03900000 +1  13.30000000 +1
  C(ATOM    103  C   ILE A   7)   7.55900000 +1   2.14100000 +1  12.46000000 +1
  O(ATOM    105  O   ILE A   7)   7.57300000 +1   2.12400000 +1  11.20500000 +1
  C(ATOM    107  CB  ILE A   7)   8.92800000 +1   0.64400000 +1  13.93200000 +1
  C(ATOM    109  CG1 ILE A   7)  10.30900000 +1   0.38500000 +1  14.57300000 +1
  C(ATOM    111  CG2 ILE A   7)   8.51000000 +1  -0.46400000 +1  12.90800000 +1
  C(ATOM    113  CD1 ILE A   7)  11.43000000 +1   0.29500000 +1  13.47300000 +1
  H(ATOM    115  H   ILE A   7)   9.07800000 +1   2.87800000 +1  15.26900000 +1
  H(ATOM    116  HA  ILE A   7)   9.71400000 +1   2.12300000 +1  12.62300000 +1
  H(ATOM    118  HB  ILE A   7)   8.20000000 +1   0.59800000 +1  14.75900000 +1
[...]
  C(ATOM    550  CG  TYR A  29)   0.08000000 +1   9.85900000 +1   5.25700000 +1
  C(ATOM    553  CD1 TYR A  29)  -1.27000000 +1   9.61900000 +1   5.52500000 +1
  C(ATOM    556  CD2 TYR A  29)   0.93900000 +1   8.78700000 +1   4.96600000 +1
  C(ATOM    559  CE1 TYR A  29)  -1.75900000 +1   8.28700000 +1   5.48100000 +1
  C(ATOM    562  CE2 TYR A  29)   0.45000000 +1   7.47300000 +1   4.94400000 +1
  C(ATOM    565  CZ  TYR A  29)  -0.90000000 +1   7.23300000 +1   5.21200000 +1
  O(ATOM    568  OH  TYR A  29)  -1.39000000 +1   5.95600000 +1   5.21200000 +1
  H(ATOM    571  H   TYR A  29)   2.18700000 +1  13.16400000 +1   5.61700000 +1
  H(ATOM    572  HA  TYR A  29)  -0.31000000 +1  12.42100000 +1   6.86300000 +1
  H(ATOM    573  HB2 TYR A  29)  -0.01700000 +1  11.91300000 +1   4.65900000 +1
  H(ATOM    574  HB3 TYR A  29)   1.62200000 +1  11.30000000 +1   4.89700000 +1
  H(ATOM    575  HD1 TYR A  29)  -1.94500000 +1  10.45100000 +1   5.76900000 +1
  H(ATOM    578  HD2 TYR A  29)   2.00100000 +1   8.97800000 +1   4.75500000 +1
  H(ATOM    581  HE1 TYR A  29)  -2.82600000 +1   8.09100000 +1   5.66000000 +1
  H(ATOM    584  HE2 TYR A  29)   1.12500000 +1   6.63600000 +1   4.71600000 +1
  H(ATOM    587  HH  TYR A  29)  -0.67600000 +1   5.33700000 +1   5.00600000 +1
  N(ATOM    590  N   THR A  30)   2.41200000 +1  10.89600000 +1   7.97600000 +1
  C(ATOM    591  CA  THR A  30)   2.92600000 +1   9.88500000 +1   8.89000000 +1
  C(ATOM    592  C   THR A  30)   3.53100000 +1  10.41600000 +1  10.18500000 +1
  O(ATOM    593  O   THR A  30)   3.70400000 +1   9.60900000 +1  11.10800000 +1
  C(ATOM    594  CB  THR A  30)   4.03100000 +1   9.05400000 +1   8.19700000 +1
  O(ATOM    595  OG1 THR A  30)   5.12300000 +1   9.91000000 +1   7.84300000 +1
  C(ATOM    596  CG2 THR A  30)   3.49900000 +1   8.28400000 +1   7.00800000 +1
  H(ATOM    597  H   THR A  30)   3.06700000 +1  11.46300000 +1   7.46000000 +1
  H(ATOM    598  HA  THR A  30)   2.10100000 +1   9.20700000 +1   9.15100000 +1
  H(ATOM    599  HB  THR A  30)   4.40500000 +1   8.32300000 +1   8.92800000 +1
  H(ATOM    600  HG1 THR A  30)   4.85900000 +1  10.48100000 +1   7.10800000 +1
  H(ATOM    601 HG21 THR A  30)   4.31500000 +1   7.70500000 +1   6.55300000 +1
  H(ATOM    602 HG22 THR A  30)   3.09100000 +1   8.98700000 +1   6.26900000 +1
  H(ATOM    603 HG23 THR A  30)   2.70600000 +1   7.60000000 +1   7.34000000 +1
  N(ATOM    604  N   GLY A  31)   3.93100000 +1  11.68700000 +1  10.20300000 +1
  C(ATOM    605  CA  GLY A  31)   4.73200000 +1  12.20900000 +1  11.29000000 +1
  C(ATOM    606  C   GLY A  31)   6.22900000 +1  12.14800000 +1  11.03900000 +1
  O(ATOM    607  O   GLY A  31)   6.99500000 +1  12.65800000 +1  11.86400000 +1
  H(ATOM    608  H   GLY A  31)   3.67100000 +1  12.29800000 +1   9.44300000 +1
  H(ATOM    609  HA2 GLY A  31)   4.44600000 +1  13.25500000 +1  11.46900000 +1
  H(ATOM    610  HA3 GLY A  31)   4.50300000 +1  11.64000000 +1  12.20200000 +1
  N(ATOM    611  N   CYS A  32)   6.67000000 +1  11.51100000 +1   9.95200000 +1
  C(ATOM    612  CA  CYS A  32)   8.06900000 +1  11.59500000 +1   9.56800000 +1
  C(ATOM    613  C   CYS A  32)   8.38400000 +1  13.04500000 +1   9.13000000 +1
  O(ATOM    614  O   CYS A  32)   7.48800000 +1  13.85400000 +1   8.91800000 +1
  C(ATOM    615  CB  CYS A  32)   8.38200000 +1  10.62100000 +1   8.43500000 +1
  S(ATOM    616  SG  CYS A  32)   8.01200000 +1   8.86900000 +1   8.82100000 +1
  H(ATOM    617  H   CYS A  32)   6.02900000 +1  10.96700000 +1   9.39400000 +1
  H(ATOM    618  HA  CYS A  32)   8.69300000 +1  11.34200000 +1  10.43700000 +1
  H(ATOM    619  HB2 CYS A  32)   7.80300000 +1  10.91500000 +1   7.54800000 +1
  H(ATOM    620  HB3 CYS A  32)   9.44700000 +1  10.70800000 +1   8.18100000 +1
  N(ATOM    621  N   ILE A  33)   9.68800000 +1  13.31100000 +1   8.98800000 +1
  C(ATOM    622  CA  ILE A  33)  10.17600000 +1  14.64500000 +1   8.66600000 +1
  C(ATOM    623  C   ILE A  33)  11.24200000 +1  14.53100000 +1   7.57800000 +1
  O(ATOM    624  O   ILE A  33)  11.86800000 +1  13.48500000 +1   7.38200000 +1
  C(ATOM    625  CB  ILE A  33)  10.74800000 +1  15.35500000 +1   9.91700000 +1
  C(ATOM    626  CG1 ILE A  33)  11.99600000 +1  14.65500000 +1  10.48400000 +1
  C(ATOM    627  CG2 ILE A  33)   9.65400000 +1  15.48000000 +1  10.97100000 +1
  C(ATOM    628  CD1 ILE A  33)  12.69300000 +1  15.43000000 +1  11.57900000 +1
  H(ATOM    629  H   ILE A  33)  10.35500000 +1  12.56300000 +1   9.10800000 +1
  H(ATOM    630  HA  ILE A  33)   9.33700000 +1  15.24100000 +1   8.27900000 +1
  H(ATOM    631  HB  ILE A  33)  11.04200000 +1  16.37100000 +1   9.61900000 +1
  H(ATOM    632 HG12 ILE A  33)  11.70000000 +1  13.67300000 +1  10.88000000 +1
  H(ATOM    633 HG13 ILE A  33)  12.70700000 +1  14.48300000 +1   9.66500000 +1
  H(ATOM    634 HG21 ILE A  33)   8.77900000 +1  15.98100000 +1  10.53300000 +1
  H(ATOM    635 HG22 ILE A  33)  10.02800000 +1  16.07100000 +1  11.81900000 +1
  H(ATOM    636 HG23 ILE A  33)   9.36600000 +1  14.47900000 +1  11.32100000 +1
  H(ATOM    637 HD11 ILE A  33)  13.56100000 +1  14.85700000 +1  11.93700000 +1
  H(ATOM    638 HD12 ILE A  33)  11.99600000 +1  15.59600000 +1  12.41200000 +1
  H(ATOM    639 HD13 ILE A  33)  13.03100000 +1  16.39800000 +1  11.18500000 +1
  N(ATOM    640  N   ILE A  34)  11.45200000 +1  15.66200000 +1   6.90500000 +1
  C(ATOM    641  CA  ILE A  34)  12.51100000 +1  15.81500000 +1   5.91900000 +1
  C(ATOM    642  C   ILE A  34)  13.50500000 +1  16.81400000 +1   6.47300000 +1
  O(ATOM    643  O   ILE A  34)  13.10300000 +1  17.91300000 +1   6.89900000 +1
  C(ATOM    644  CB  ILE A  34)  11.94300000 +1  16.41000000 +1   4.60100000 +1
  C(ATOM    646  CG1 ILE A  34)  10.90700000 +1  15.50500000 +1   3.98800000 +1
  C(ATOM    648  CG2 ILE A  34)  13.18800000 +1  16.56700000 +1   3.59700000 +1
  C(ATOM    650  CD1 ILE A  34)  10.21400000 +1  16.12600000 +1   2.77400000 +1
  H(ATOM    652  H   ILE A  34)  10.85000000 +1  16.45700000 +1   7.09100000 +1
  H(ATOM    653  HA  ILE A  34)  12.99900000 +1  14.86000000 +1   5.73200000 +1
  H(ATOM    654  HB  ILE A  34)  11.54600000 +1  17.41900000 +1   4.76700000 +1
  H(ATOM    656 HG12 ILE A  34)  11.37900000 +1  14.55800000 +1   3.69000000 +1
  H(ATOM    658 HG13 ILE A  34)  10.16800000 +1  15.28500000 +1   4.76900000 +1
  H(ATOM    660 HG21 ILE A  34)  13.92400000 +1  17.23900000 +1   4.04200000 +1
  H(ATOM    662 HG22 ILE A  34)  12.80400000 +1  17.02100000 +1   2.65600000 +1
  H(ATOM    664 HG23 ILE A  34)  13.60200000 +1  15.59500000 +1   3.39800000 +1
  H(ATOM    666 HD11 ILE A  34)   9.43600000 +1  15.45100000 +1   2.40600000 +1
  H(ATOM    668 HD12 ILE A  34)  10.94700000 +1  16.32200000 +1   1.98300000 +1
  H(ATOM    670 HD13 ILE A  34)   9.74600000 +1  17.08700000 +1   3.07600000 +1
  N(ATOM    672  N   ILE A  35)  14.79000000 +1  16.45800000 +1   6.44200000 +1
  C(ATOM    673  CA  ILE A  35)  15.84700000 +1  17.37600000 +1   6.89300000 +1
  C(ATOM    674  C   ILE A  35)  16.85500000 +1  17.52200000 +1   5.75000000 +1
  O(ATOM    675  O   ILE A  35)  17.02400000 +1  16.62200000 +1   4.92300000 +1
  C(ATOM    676  CB  ILE A  35)  16.54500000 +1  16.89000000 +1   8.17600000 +1
  C(ATOM    677  CG1 ILE A  35)  17.22700000 +1  15.53100000 +1   7.98700000 +1
  C(ATOM    678  CG2 ILE A  35)  15.53200000 +1  16.85100000 +1   9.29900000 +1
  C(ATOM    679  CD1 ILE A  35)  18.14600000 +1  15.15200000 +1   9.13800000 +1
  H(ATOM    680  H   ILE A  35)  15.03200000 +1  15.54800000 +1   6.12300000 +1
  H(ATOM    681  HA  ILE A  35)  15.40200000 +1  18.36100000 +1   7.09200000 +1
  H(ATOM    682  HB  ILE A  35)  17.31800000 +1  17.62400000 +1   8.44100000 +1
  H(ATOM    683 HG12 ILE A  35)  16.45500000 +1  14.75700000 +1   7.87800000 +1
  H(ATOM    684 HG13 ILE A  35)  17.81200000 +1  15.55300000 +1   7.05700000 +1
  H(ATOM    685 HG21 ILE A  35)  15.09300000 +1  17.84900000 +1   9.43200000 +1
  H(ATOM    686 HG22 ILE A  35)  16.02800000 +1  16.54100000 +1  10.23000000 +1
  H(ATOM    687 HG23 ILE A  35)  14.73800000 +1  16.13200000 +1   9.05100000 +1
  H(ATOM    688 HD11 ILE A  35)  18.61300000 +1  14.17900000 +1   8.93000000 +1
  H(ATOM    689 HD12 ILE A  35)  17.56200000 +1  15.08700000 +1  10.06700000 +1
  H(ATOM    690 HD13 ILE A  35)  18.92800000 +1  15.91700000 +1   9.25100000 +1
  N(ATOM    691  N   PRO A  36)  17.59300000 +1  18.64500000 +1   5.73300000 +1
  C(ATOM    692  CA  PRO A  36)  18.58100000 +1  18.84500000 +1   4.68300000 +1
  C(ATOM    693  C   PRO A  36)  19.86600000 +1  18.07900000 +1   4.95300000 +1
  O(ATOM    694  O   PRO A  36)  20.60500000 +1  17.83500000 +1   3.98200000 +1
  C(ATOM    695  CB  PRO A  36)  18.72500000 +1  20.36700000 +1   4.59600000 +1
  C(ATOM    697  CG  PRO A  36)  18.40300000 +1  20.82900000 +1   6.03000000 +1
  C(ATOM    699  CD  PRO A  36)  17.28600000 +1  19.90200000 +1   6.47100000 +1
  H(ATOM    700  HA  PRO A  36)  18.15400000 +1  18.48500000 +1   3.73600000 +1
  H(ATOM    701  HB2 PRO A  36)  19.74600000 +1  20.65300000 +1   4.30700000 +1
  H(ATOM    703  HB3 PRO A  36)  18.01500000 +1  20.79200000 +1   3.87300000 +1
  H(ATOM    705  HG2 PRO A  36)  19.28100000 +1  20.72600000 +1   6.68300000 +1
  H(ATOM    707  HG3 PRO A  36)  18.07200000 +1  21.87700000 +1   6.04100000 +1
  H(ATOM    709  HD2 PRO A  36)  17.30900000 +1  19.74100000 +1   7.55800000 +1
  H(ATOM    710  HD3 PRO A  36)  16.30200000 +1  20.30100000 +1   6.18600000 +1
  N(ATOM    711  N   GLY A  37)  20.15400000 +1  17.79900000 +1   6.20200000 +1
  C(ATOM    712  CA  GLY A  37)  21.33400000 +1  17.01300000 +1   6.60800000 +1
  C(ATOM    713  C   GLY A  37)  21.08200000 +1  15.52800000 +1   6.41500000 +1
  O(ATOM    714  O   GLY A  37)  20.09700000 +1  15.09700000 +1   5.84000000 +1
  H(ATOM    715  H   GLY A  37)  19.53400000 +1  18.13000000 +1   6.93300000 +1
  H(ATOM    716  HA2 GLY A  37)  22.18700000 +1  17.35500000 +1   5.97900000 +1
  H(ATOM    717  HA3 GLY A  37)  21.57400000 +1  17.25600000 +1   7.64700000 +1
  N(ATOM    718  N   ALA A  38)  22.00800000 +1  14.74600000 +1   6.97100000 +1
  C(ATOM    719  CA  ALA A  38)  21.99500000 +1  13.32000000 +1   6.83700000 +1
  C(ATOM    720  C   ALA A  38)  21.84300000 +1  12.60900000 +1   8.19300000 +1
  O(ATOM    721  O   ALA A  38)  21.80600000 +1  11.37600000 +1   8.22100000 +1
  C(ATOM    722  CB  ALA A  38)  23.23500000 +1  12.80200000 +1   6.10900000 +1
  H(ATOM    723  H   ALA A  38)  22.75500000 +1  15.18300000 +1   7.49400000 +1
  H(ATOM    724  HA  ALA A  38)  21.12000000 +1  13.05500000 +1   6.22700000 +1
  H(ATOM    725  HB1 ALA A  38)  23.28900000 +1  13.25700000 +1   5.11000000 +1
  H(ATOM    726  HB2 ALA A  38)  23.17200000 +1  11.71000000 +1   6.01100000 +1
  H(ATOM    727  HB3 ALA A  38)  24.13400000 +1  13.06800000 +1   6.68200000 +1
  N(ATOM    728  N   THR A  39)  21.78700000 +1  13.37700000 +1   9.29000000 +1
  C(ATOM    729  CA  THR A  39)  21.84000000 +1  12.80100000 +1  10.61000000 +1
  C(ATOM    730  C   THR A  39)  20.53500000 +1  13.02600000 +1  11.33000000 +1
  O(ATOM    731  O   THR A  39)  20.25000000 +1  14.14900000 +1  11.77200000 +1
  C(ATOM    732  CB  THR A  39)  23.12300000 +1  13.27700000 +1  11.31800000 +1
  O(ATOM    734  OG1 THR A  39)  24.24200000 +1  13.04600000 +1  10.38100000 +1
  C(ATOM    736  CG2 THR A  39)  23.35100000 +1  12.18700000 +1  12.36100000 +1
  H(ATOM    738  H   THR A  39)  21.70600000 +1  14.37800000 +1   9.19000000 +1
  H(ATOM    739  HA  THR A  39)  21.94000000 +1  11.71500000 +1  10.47500000 +1
  N(ATOM    744  N   CYS A  40)  19.74800000 +1  11.98200000 +1  11.47700000 +1
  C(ATOM    745  CA  CYS A  40)  18.46000000 +1  12.12000000 +1  12.13900000 +1
  C(ATOM    746  C   CYS A  40)  18.66000000 +1  12.20200000 +1  13.66900000 +1
  O(ATOM    747  O   CYS A  40)  19.51500000 +1  11.52300000 +1  14.22700000 +1
  C(ATOM    748  CB  CYS A  40)  17.59100000 +1  10.91400000 +1  11.82500000 +1
  S(ATOM    749  SG  CYS A  40)  17.12400000 +1  10.80700000 +1  10.06700000 +1
  H(ATOM    750  H   CYS A  40)  20.03900000 +1  11.08100000 +1  11.12800000 +1
  H(ATOM    751  HA  CYS A  40)  17.96200000 +1  13.03300000 +1  11.78400000 +1
  H(ATOM    752  HB2 CYS A  40)  18.13300000 +1  10.00000000 +1  12.10700000 +1
  H(ATOM    753  HB3 CYS A  40)  16.67800000 +1  10.96300000 +1  12.43500000 +1
  N(ATOM    754  N   PRO A  41)  17.84700000 +1  13.00900000 +1  14.32900000 +1
  C(ATOM    755  CA  PRO A  41)  17.97500000 +1  13.13900000 +1  15.78700000 +1
  C(ATOM    756  C   PRO A  41)  17.35500000 +1  11.96500000 +1  16.53000000 +1
  O(ATOM    757  O   PRO A  41)  16.62700000 +1  11.14700000 +1  15.96900000 +1
  C(ATOM    758  CB  PRO A  41)  17.21500000 +1  14.45100000 +1  16.07000000 +1
  C(ATOM    759  CG  PRO A  41)  16.10200000 +1  14.43000000 +1  15.01600000 +1
  C(ATOM    760  CD  PRO A  41)  16.79900000 +1  13.88100000 +1  13.76800000 +1
  H(ATOM    761  HA  PRO A  41)  19.03300000 +1  13.24600000 +1  16.06500000 +1
  H(ATOM    762  HB2 PRO A  41)  16.80000000 +1  14.45900000 +1  17.08800000 +1
  H(ATOM    763  HB3 PRO A  41)  17.86900000 +1  15.32500000 +1  15.94100000 +1
  H(ATOM    764  HG2 PRO A  41)  15.27700000 +1  13.77400000 +1  15.32800000 +1
  H(ATOM    765  HG3 PRO A  41)  15.70900000 +1  15.44000000 +1  14.83700000 +1
  H(ATOM    766  HD2 PRO A  41)  16.10000000 +1  13.30900000 +1  13.14300000 +1
  H(ATOM    767  HD3 PRO A  41)  17.23600000 +1  14.69200000 +1  13.16900000 +1
  N(ATOM    768  N   GLY A  42)  17.64300000 +1  11.91500000 +1  17.85300000 +1
  C(ATOM    769  CA  GLY A  42)  17.22600000 +1  10.77900000 +1  18.68300000 +1
  C(ATOM    770  C   GLY A  42)  15.74600000 +1  10.58400000 +1  18.83200000 +1
  O(ATOM    771  O   GLY A  42)  15.33100000 +1   9.48500000 +1  19.18700000 +1
  H(ATOM    772  H   GLY A  42)  18.15600000 +1  12.67400000 +1  18.27600000 +1
  H(ATOM    773  HA2 GLY A  42)  17.65300000 +1   9.86300000 +1  18.25300000 +1
  H(ATOM    774  HA3 GLY A  42)  17.66000000 +1  10.90600000 +1  19.68400000 +1
  N(ATOM    775  N   ASP A  43)  14.94000000 +1  11.62600000 +1  18.61500000 +1
  C(ATOM    776  CA  ASP A  43)  13.49100000 +1  11.51800000 +1  18.67600000 +1
  C(ATOM    777  C   ASP A  43)  12.86600000 +1  11.26500000 +1  17.29200000 +1
  O(ATOM    778  O   ASP A  43)  11.63700000 +1  11.13100000 +1  17.21200000 +1
  C(ATOM    779  CB  ASP A  43)  13.09100000 +1  12.93100000 +1  19.13600000 +1
  C(ATOM    781  CG  ASP A  43)  13.56000000 +1  14.34800000 +1  18.47200000 +1
  O(ATOM    783  OD1 ASP A  43)  14.41500000 +1  14.36300000 +1  17.61200000 +1
  O(ATOM    785  OD2 ASP A  43)  12.98600000 +1  15.45900000 +1  18.86800000 +1
  H(ATOM    787  H   ASP A  43)  15.35200000 +1  12.52100000 +1  18.39900000 +1
  H(ATOM    788  HA  ASP A  43)  13.17700000 +1  10.75600000 +1  19.40300000 +1
  H(ATOM    789  HB2 ASP A  43)  11.99200000 +1  12.94700000 +1  19.11800000 +1
  H(ATOM    791  HB3 ASP A  43)  13.38000000 +1  12.99000000 +1  20.19400000 +1
  N(ATOM    793  N   TYR A  44)  13.71100000 +1  11.17500000 +1  16.26000000 +1
  C(ATOM    794  CA  TYR A  44)  13.26700000 +1  10.72200000 +1  14.92600000 +1
  C(ATOM    795  C   TYR A  44)  14.25100000 +1   9.66100000 +1  14.43900000 +1
  O(ATOM    796  O   TYR A  44)  14.93100000 +1   9.81200000 +1  13.42600000 +1
  C(ATOM    797  CB  TYR A  44)  13.13200000 +1  11.88300000 +1  13.92400000 +1
  C(ATOM    798  CG  TYR A  44)  11.97800000 +1  12.79700000 +1  14.25100000 +1
  C(ATOM    799  CD1 TYR A  44)  12.08300000 +1  13.83500000 +1  15.17900000 +1
  C(ATOM    800  CD2 TYR A  44)  10.76500000 +1  12.58500000 +1  13.60800000 +1
  C(ATOM    801  CE1 TYR A  44)  10.98900000 +1  14.64300000 +1  15.46200000 +1
  C(ATOM    802  CE2 TYR A  44)   9.64900000 +1  13.38000000 +1  13.88300000 +1
  C(ATOM    803  CZ  TYR A  44)   9.77000000 +1  14.41000000 +1  14.81900000 +1
  O(ATOM    804  OH  TYR A  44)   8.71600000 +1  15.22300000 +1  15.10600000 +1
  H(ATOM    805  H   TYR A  44)  14.67200000 +1  11.39100000 +1  16.41000000 +1
  H(ATOM    806  HA  TYR A  44)  12.27900000 +1  10.27500000 +1  15.02500000 +1
  H(ATOM    807  HB2 TYR A  44)  14.06300000 +1  12.46200000 +1  13.92000000 +1
  H(ATOM    808  HB3 TYR A  44)  12.98700000 +1  11.45900000 +1  12.92400000 +1
  H(ATOM    809  HD1 TYR A  44)  13.03900000 +1  14.01500000 +1  15.69000000 +1
  H(ATOM    810  HD2 TYR A  44)  10.68200000 +1  11.77700000 +1  12.86800000 +1
  H(ATOM    811  HE1 TYR A  44)  11.08100000 +1  15.46200000 +1  16.18900000 +1
  H(ATOM    812  HE2 TYR A  44)   8.69300000 +1  13.19700000 +1  13.37200000 +1
  H(ATOM    813  HH  TYR A  44)   7.94600000 +1  14.94500000 +1  14.59000000 +1
  N(ATOM    814  N   ALA A  45)  14.35300000 +1   8.61200000 +1  15.27400000 +1
  C(ATOM    815  CA  ALA A  45)  15.41100000 +1   7.63300000 +1  15.17100000 +1
  C(ATOM    816  C   ALA A  45)  15.17600000 +1   6.50400000 +1  14.19600000 +1
  O(ATOM    817  O   ALA A  45)  16.09100000 +1   5.69500000 +1  13.99100000 +1
  C(ATOM    818  CB  ALA A  45)  15.63100000 +1   7.05500000 +1  16.57400000 +1
  H(ATOM    819  H   ALA A  45)  13.65700000 +1   8.49900000 +1  15.99600000 +1
  H(ATOM    820  HA  ALA A  45)  16.33000000 +1   8.15600000 +1  14.87100000 +1
  H(ATOM    821  HB1 ALA A  45)  15.81100000 +1   7.87400000 +1  17.28400000 +1
  H(ATOM    822  HB2 ALA A  45)  16.50100000 +1   6.38300000 +1  16.56100000 +1
  H(ATOM    823  HB3 ALA A  45)  14.73900000 +1   6.49300000 +1  16.88300000 +1
  N(ATOM    824  N   ASN A  46)  13.96800000 +1   6.42800000 +1  13.64400000 +1
  C(ATOM    825  CA  ASN A  46)  13.54500000 +1   5.34700000 +1  12.78000000 +1
  C(ATOM    826  C   ASN A  46)  13.31400000 +1   5.79800000 +1  11.33100000 +1
  O(ATOM    827  O   ASN A  46)  13.72200000 +1   6.91400000 +1  10.97700000 +1
  C(ATOM    828  CB  ASN A  46)  12.28900000 +1   4.68500000 +1  13.37900000 +1
  C(ATOM    829  CG  ASN A  46)  12.55200000 +1   4.05800000 +1  14.70800000 +1
  O(ATOM    831  OD1 ASN A  46)  11.88400000 +1   4.46400000 +1  15.64400000 +1
  N(ATOM    833  ND2 ASN A  46)  13.52700000 +1   3.16200000 +1  14.79900000 +1
  O(ATOM    835  OXT ASN A  46)  12.72000000 +1   4.98200000 +1  10.59000000 +1
  H(ATOM    836  H   ASN A  46)  13.30800000 +1   7.16700000 +1  13.83900000 +1
  H(ATOM    837  HA  ASN A  46)  14.34700000 +1   4.59500000 +1  12.77100000 +1
  H(ATOM    838  HB2 ASN A  46)  11.50100000 +1   5.44200000 +1  13.48800000 +1
  H(ATOM    839  HB3 ASN A  46)  11.92300000 +1   3.91500000 +1  12.68400000 +1
  H(ATOM    840 HD21 ASN A  46)  13.76400000 +1   2.76200000 +1  15.69500000 +1
  H(ATOM    842 HD22 ASN A  46)  14.03200000 +1   2.88000000 +1  13.97200000 +1


                RESIDUE SEQUENCE IN PROTEIN Chain: A

             1     2     3     4     5     6     7     8     9    10
        0   THR   THR   CYS   CYS   PRO   SER   ILE   VAL   ALA   ARG   
       10   SER   ASN   PHE   ASN   VAL   CYS   ARG   LEU   PRO   GLY   
       20   THR   PRO   GLU   ALA   LEU   CYS   ALA   THR   TYR   THR   
       30   GLY   CYS   ILE   ILE   ILE   PRO   GLY   ALA   THR   CYS   
       40   PRO   GLY   ASP   TYR   ALA   ASN   

                RESIDUE SEQUENCE IN PROTEIN Chain: A

        0  TTCCPSIVAR SNFNVCRLPG TPEALCATYT GCIIIPGATC PGDYAN

          ADD-H: SYSTEM HAS BEEN HYDROGENATED

 ******************************************************************************
 *                                                                            *
 *     Error and normal termination messages reported in this calculation     *
 *                                                                            *
 * ADD-H: SYSTEM HAS BEEN HYDROGENATED                                        *
 * JOB ENDED NORMALLY                                                         *
 *                                                                            *
 ******************************************************************************



 TOTAL JOB TIME:             0.12 SECONDS

 == MOPAC DONE ==
