 *******************************************************************************
 **                                                                           **
 **                              MOPAC v22.0.6                                **
 **                                                                           **
 *******************************************************************************
 **          Digital Object Identifier (DOI): 10.5281/zenodo.6511958          **
 **    Visit the DOI location for information on how to cite this program.    **
 *******************************************************************************

                              PM7 CALCULATION RESULTS

 *******************************************************************************
 *  CALCULATION DONE:                                Thu Apr 13 11:25:41 2023  *
 *  START_RES  - STARTING RESIDUE NUMBERS DEFINED
 *  Keyword:     START_RES=(1A 66A) 
 *  CHAINS     - PDB CHAIN LETTERS EXPLICITLY DEFINED
 *  Keyword:     CHAINS=(AA) 
 *  T=         - A TIME OF 172800.0 SECONDS REQUESTED
 *  DUMP=N     - RESTART FILE WRITTEN EVERY 7200.0 SECONDS REQUESTED
 *  HEADER     - DATA SET IS IN PROTEIN DATA BANK FORMAT
 *******************************************************************************
 ADD-H PDBOUT   CHAINS=(AA)  START_RES=(1A 66A)
 From PDB file: 'PDB1CBN'

   ATOM                 CHEMICAL                   X               Y               Z
  NUMBER                 SYMBOL               (ANGSTROMS)     (ANGSTROMS)     (ANGSTROMS)

     1       N(ATOM      1  N   THR A   1)   16.86400000  *  14.05900000  *   3.44200000  *
     2       C(ATOM      3  CA  THR A   1)   16.86800000  *  12.81400000  *   4.23300000  *
     3       C(ATOM      5  C   THR A   1)   15.58300000  *  12.77500000  *   4.99000000  *
     4       O(ATOM      6  O   THR A   1)   15.11200000  *  13.82400000  *   5.43100000  *
     5       C(ATOM      7  CB  THR A   1)   18.06000000  *  12.80700000  *   5.20000000  *
     6       O(ATOM      9  OG1 THR A   1)   19.23300000  *  12.89200000  *   4.38000000  *
     7       C(ATOM     11  CG2 THR A   1)   18.11700000  *  11.57800000  *   6.09200000  *
     8       H(ATOM     13  H1  THR A   1)   16.00700000  *  14.24100000  *   3.09300000  *
     9       H(ATOM     14  H2  THR A   1)   17.08700000  *  14.80000000  *   3.99700000  *
    10       H(ATOM     15  H3  THR A   1)   17.48100000  *  14.01300000  *   2.75000000  *
    11       H(ATOM     16  HA  THR A   1)   16.94000000  *  12.04800000  *   3.60500000  *
    12       H(ATOM     17  HB  THR A   1)   18.00800000  *  13.64100000  *   5.76500000  *
    13       H(ATOM     18  HG1 THR A   1)   19.76100000  *  13.55300000  *   4.64700000  *
    14       H(ATOM     19 HG21 THR A   1)   17.94000000  *  10.76800000  *   5.54000000  *
    15       H(ATOM     20 HG22 THR A   1)   18.98300000  *  11.48800000  *   6.53100000  *
    16       H(ATOM     21 HG23 THR A   1)   17.39100000  *  11.60400000  *   6.79900000  *
    17       N(ATOM     22  N   THR A   2)   15.05000000  *  11.57400000  *   5.15300000  *
    18       C(ATOM     23  CA  THR A   2)   13.83200000  *  11.48000000  *   5.93600000  *
    19       C(ATOM     24  C   THR A   2)   14.14000000  *  10.77100000  *   7.25900000  *
    20       O(ATOM     25  O   THR A   2)   14.98100000  *   9.84400000  *   7.35200000  *
    21       C(ATOM     26  CB  THR A   2)   12.70400000  *  10.75800000  *   5.17800000  *
    22       O(ATOM     28  OG1 THR A   2)   13.21600000  *   9.50400000  *   4.84200000  *
    23       C(ATOM     30  CG2 THR A   2)   12.26900000  *  11.57300000  *   3.95700000  *
    24       H(ATOM     32  H   THR A   2)   15.43800000  *  10.82000000  *   4.85600000  *
    25       H(ATOM     33  HA  THR A   2)   13.49100000  *  12.37800000  *   6.13400000  *
    26       H(ATOM     34  HB  THR A   2)   11.91900000  *  10.66800000  *   5.81100000  *
    27       H(ATOM     35  HG1 THR A   2)   13.26000000  *   9.36300000  *   3.96600000  *
    28       H(ATOM     36 HG21 THR A   2)   11.95000000  *  12.48500000  *   4.22700000  *
    29       H(ATOM     37 HG22 THR A   2)   13.05400000  *  11.69200000  *   3.36200000  *
    30       H(ATOM     38 HG23 THR A   2)   11.56000000  *  11.10700000  *   3.47000000  *
    31       N(ATOM     39  N   CYS A   3)   13.41500000  *  11.19300000  *   8.28100000  *
    32       C(ATOM     40  CA  CYS A   3)   13.56400000  *  10.66400000  *   9.65300000  *
    33       C(ATOM     41  C   CYS A   3)   12.17900000  *  10.37300000  *  10.19200000  *
    34       O(ATOM     42  O   CYS A   3)   11.30300000  *  11.24900000  *   9.99900000  *
    35       C(ATOM     43  CB  CYS A   3)   14.25300000  *  11.70700000  *  10.54700000  *
    36       S(ATOM     44  SG  CYS A   3)   15.80400000  *  12.39800000  *   9.92100000  *
    37       H(ATOM     45  H   CYS A   3)   12.84500000  *  11.89900000  *   8.20800000  *
    38       H(ATOM     46  HA  CYS A   3)   14.11800000  *   9.88700000  *   9.65000000  *
    39       H(ATOM     47  HB2 CYS A   3)   13.65100000  *  12.47100000  *  10.67000000  *
    40       H(ATOM     48  HB3 CYS A   3)   14.44200000  *  11.33100000  *  11.42600000  *
    41       N(ATOM     49  N   CYS A   4)   11.99800000  *   9.28100000  *  10.85800000  *
    42       C(ATOM     50  CA  CYS A   4)   10.65700000  *   8.92700000  *  11.34100000  *
    43       C(ATOM     51  C   CYS A   4)   10.64800000  *   8.74900000  *  12.84200000  *
    44       O(ATOM     52  O   CYS A   4)   11.61500000  *   8.25700000  *  13.44000000  *
    45       C(ATOM     53  CB  CYS A   4)   10.13700000  *   7.67800000  *  10.63400000  *
    46       S(ATOM     54  SG  CYS A   4)    9.80400000  *   7.92800000  *   8.86500000  *
    47       H(ATOM     55  H   CYS A   4)   12.65800000  *   8.66000000  *  10.95100000  *
    48       H(ATOM     56  HA  CYS A   4)   10.03700000  *   9.64200000  *  11.09200000  *
    49       H(ATOM     57  HB2 CYS A   4)   10.79000000  *   6.96300000  *  10.69200000  *
    50       H(ATOM     58  HB3 CYS A   4)    9.30000000  *   7.37300000  *  11.03600000  *
    51       N(ATOM     59  N   PRO A   5)    9.52900000  *   9.07500000  *  13.50600000  *
    52       C(ATOM     60  CA  PRO A   5)    9.47400000  *   9.02500000  *  14.94200000  *
    53       C(ATOM     61  C   PRO A   5)    9.33500000  *   7.68000000  *  15.54400000  *
    54       O(ATOM     62  O   PRO A   5)    9.59900000  *   7.51100000  *  16.76100000  *
    55       C(ATOM     63  CB  PRO A   5)    8.24700000  *   9.90100000  *  15.26600000  *
    56       C(ATOM     64  CG  PRO A   5)    7.32200000  *   9.73300000  *  14.05500000  *
    57       C(ATOM     65  CD  PRO A   5)    8.31600000  *   9.74500000  *  12.91200000  *
    58       H(ATOM     66  HA  PRO A   5)   10.27200000  *   9.41000000  *  15.34300000  *
    59       H(ATOM     67  HB2 PRO A   5)    7.82800000  *   9.70500000  *  16.02900000  *
    60       H(ATOM     68  HB3 PRO A   5)    8.50800000  *  10.81400000  *  15.35800000  *
    61       H(ATOM     69  HG2 PRO A   5)    6.93000000  *   8.99300000  *  14.10200000  *
    62       H(ATOM     70  HG3 PRO A   5)    6.68100000  *  10.45300000  *  13.97700000  *
    63       H(ATOM     71  HD2 PRO A   5)    7.99500000  *   9.22500000  *  12.14800000  *
    64       H(ATOM     72  HD3 PRO A   5)    8.59200000  *  10.61100000  *  12.55500000  *
    65       N(ATOM     73  N   SER A   6)    8.90300000  *   6.70100000  *  14.77200000  *
    66       C(ATOM     74  CA  SER A   6)    8.70600000  *   5.34100000  *  15.23000000  *
    67       C(ATOM     75  C   SER A   6)    8.79100000  *   4.42200000  *  14.00900000  *
    68       O(ATOM     76  O   SER A   6)    8.72200000  *   4.87600000  *  12.86700000  *
    69       C(ATOM     77  CB  SER A   6)    7.37600000  *   5.15100000  *  15.94700000  *
    70       O(ATOM     78  OG  SER A   6)    6.32700000  *   5.25400000  *  14.94300000  *
    71       H(ATOM     79  H   SER A   6)    8.76000000  *   6.85500000  *  13.87400000  *
    72       H(ATOM     80  HA  SER A   6)    9.38000000  *   5.08700000  *  15.88000000  *
    73       H(ATOM     81  HB2 SER A   6)    7.32300000  *   4.24800000  *  16.30900000  *
    74       H(ATOM     82  HB3 SER A   6)    7.22900000  *   5.83100000  *  16.63500000  *
    75       H(ATOM     83  HG  SER A   6)    5.60500000  *   4.99500000  *  15.35900000  *
    76       N(ATOM     84  N   ILE A   7)    8.88700000  *   3.12900000  *  14.30100000  *
    77       C(ATOM     85  CA  ILE A   7)    8.94100000  *   2.08700000  *  13.26700000  *
    78       C(ATOM     86  C   ILE A   7)    7.65300000  *   2.10600000  *  12.39500000  *
    79       O(ATOM     87  O   ILE A   7)    7.75200000  *   2.10900000  *  11.18200000  *
    80       C(ATOM     88  CB  ILE A   7)    9.19300000  *   0.73600000  *  13.88000000  *
    81       C(ATOM     89  CG1 ILE A   7)   10.65900000  *   0.72600000  *  14.33700000  *
    82       C(ATOM     90  CG2 ILE A   7)    8.87700000  *  -0.42500000  *  12.92700000  *
    83       C(ATOM     91  CD1 ILE A   7)   11.29300000  *  -0.46000000  *  15.01100000  *
    84       H(ATOM     93  H   ILE A   7)    8.88500000  *   2.83300000  *  15.16400000  *
    85       H(ATOM     94  HA  ILE A   7)    9.68700000  *   2.29300000  *  12.65800000  *
    86       H(ATOM     95  HB  ILE A   7)    8.61500000  *   0.63700000  *  14.67400000  *
    87       H(ATOM     96 HG12 ILE A   7)   11.18200000  *   0.91500000  *  13.49500000  *
    88       H(ATOM     98 HG13 ILE A   7)   10.78200000  *   1.51900000  *  14.93400000  *
    89       H(ATOM    100 HG21 ILE A   7)    8.87900000  *  -1.25900000  *  13.46100000  *
    90       H(ATOM    101 HG22 ILE A   7)    9.58100000  *  -0.44600000  *  12.23000000  *
    91       H(ATOM    102 HG23 ILE A   7)    7.99300000  *  -0.28000000  *  12.52500000  *
    92       H(ATOM    103 HD11 ILE A   7)   10.58900000  *  -0.93400000  *  15.54000000  *
    93       H(ATOM    105 HD12 ILE A   7)   11.69000000  *  -1.08700000  *  14.32700000  *
    94       H(ATOM    107 HD13 ILE A   7)   11.99800000  *  -0.14800000  *  15.64600000  *
    95       N(ATOM    109  N   VAL A   8)    6.50500000  *   2.13700000  *  13.06900000  *
    96       C(ATOM    110  CA  VAL A   8)    5.25000000  *   2.18000000  *  12.30000000  *
    97       C(ATOM    111  C   VAL A   8)    5.17500000  *   3.35900000  *  11.39500000  *
    98       O(ATOM    112  O   VAL A   8)    4.66800000  *   3.26500000  *  10.24000000  *
    99       C(ATOM    113  CB  VAL A   8)    3.95700000  *   2.25400000  *  13.26100000  *
   100       C(ATOM    115  CG1 VAL A   8)    2.66500000  *   2.91100000  *  12.69300000  *
   101       C(ATOM    117  CG2 VAL A   8)    3.65900000  *   0.89400000  *  13.88700000  *
   102       H(ATOM    119  H   VAL A   8)    6.48400000  *   2.12700000  *  13.96500000  *
   103       H(ATOM    120  HA  VAL A   8)    5.10100000  *   1.33900000  *  11.86500000  *
   104       H(ATOM    121  HB  VAL A   8)    4.28400000  *   2.88300000  *  13.95000000  *
   105       H(ATOM    123 HG11 VAL A   8)    2.38900000  *   2.43400000  *  11.89700000  *
   106       H(ATOM    125 HG12 VAL A   8)    1.96000000  *   2.84600000  *  13.36400000  *
   107       H(ATOM    127 HG13 VAL A   8)    2.81700000  *   3.84300000  *  12.49100000  *
   108       H(ATOM    129 HG21 VAL A   8)    4.43200000  *   0.30500000  *  13.92200000  *
   109       H(ATOM    131 HG22 VAL A   8)    3.29600000  *   0.98300000  *  14.78000000  *
   110       H(ATOM    133 HG23 VAL A   8)    2.96400000  *   0.42700000  *  13.37300000  *
   111       N(ATOM    135  N   ALA A   9)    5.63400000  *   4.54200000  *  11.86000000  *
   112       C(ATOM    136  CA  ALA A   9)    5.60000000  *   5.71100000  *  11.01600000  *
   113       C(ATOM    137  C   ALA A   9)    6.44000000  *   5.49900000  *   9.77600000  *
   114       O(ATOM    138  O   ALA A   9)    6.03600000  *   5.88200000  *   8.64900000  *
   115       C(ATOM    139  CB  ALA A   9)    6.02900000  *   6.95000000  *  11.78700000  *
   116       H(ATOM    140  H   ALA A   9)    5.95100000  *   4.58700000  *  12.70200000  *
   117       H(ATOM    141  HA  ALA A   9)    4.66500000  *   5.88700000  *  10.72800000  *
   118       H(ATOM    142  HB1 ALA A   9)    6.92300000  *   6.82000000  *  12.17300000  *
   119       H(ATOM    143  HB2 ALA A   9)    6.05400000  *   7.73800000  *  11.20100000  *
   120       H(ATOM    144  HB3 ALA A   9)    5.40000000  *   7.13400000  *  12.52800000  *
   121       N(ATOM    145  N   ARG A  10)    7.63700000  *   4.88500000  *   9.91600000  *
   122       C(ATOM    146  CA  ARG A  10)    8.47000000  *   4.57700000  *   8.76400000  *
   123       C(ATOM    147  C   ARG A  10)    7.77500000  *   3.58000000  *   7.82700000  *
   124       O(ATOM    148  O   ARG A  10)    7.80800000  *   3.73700000  *   6.59300000  *
   125       C(ATOM    149  CB  ARG A  10)    9.82200000  *   3.99000000  *   9.19600000  *
   126       C(ATOM    150  CG  ARG A  10)   10.73200000  *   3.59000000  *   8.05200000  *
   127       C(ATOM    152  CD  ARG A  10)   11.19400000  *   4.70600000  *   7.14500000  *
   128       N(ATOM    154  NE  ARG A  10)   12.08900000  *   5.61100000  *   7.86300000  *
   129       C(ATOM    156  CZ  ARG A  10)   12.64000000  *   6.70200000  *   7.33200000  *
   130       N(ATOM    158  NH1 ARG A  10)   12.44100000  *   7.02900000  *   6.06400000  *
   131       N(ATOM    160  NH2 ARG A  10)   13.38800000  *   7.49300000  *   8.10100000  *
   132       H(ATOM    162  H   ARG A  10)    7.87100000  *   4.58800000  *  10.73500000  *
   133       H(ATOM    163  HA  ARG A  10)    8.66900000  *   5.39100000  *   8.26400000  *
   134       H(ATOM    164  HB2 ARG A  10)   10.23900000  *   4.65300000  *   9.79300000  *
   135       H(ATOM    165  HB3 ARG A  10)    9.61700000  *   3.21800000  *   9.76200000  *
   136       H(ATOM    166  HG2 ARG A  10)   11.53400000  *   3.14800000  *   8.39500000  *
   137       H(ATOM    167  HG3 ARG A  10)   10.32700000  *   2.91800000  *   7.49800000  *
   138       H(ATOM    168  HD2 ARG A  10)   11.68400000  *   4.28100000  *   6.42500000  *
   139       H(ATOM    169  HD3 ARG A  10)   10.46800000  *   5.16100000  *   6.74500000  *
   140       H(ATOM    170  HE  ARG A  10)   12.21000000  *   5.48900000  *   8.76600000  *
   141       H(ATOM    171 HH11 ARG A  10)   11.95700000  *   6.52300000  *   5.48200000  *
   142       H(ATOM    172 HH12 ARG A  10)   12.85200000  *   7.79100000  *   5.72600000  *
   143       H(ATOM    173 HH21 ARG A  10)   13.56000000  *   7.29900000  *   8.97200000  *
   144       H(ATOM    174 HH22 ARG A  10)   13.77600000  *   8.23300000  *   7.72700000  *
   145       N(ATOM    175  N   SER A  11)    7.18300000  *   2.51700000  *   8.38700000  *
   146       C(ATOM    176  CA  SER A  11)    6.49400000  *   1.54700000  *   7.53800000  *
   147       C(ATOM    177  C   SER A  11)    5.36100000  *   2.22500000  *   6.73900000  *
   148       O(ATOM    178  O   SER A  11)    5.18800000  *   1.98300000  *   5.51900000  *
   149       C(ATOM    179  CB  SER A  11)    5.94900000  *   0.42400000  *   8.34800000  *
   150       O(ATOM    180  OG  SER A  11)    7.01300000  *  -0.26700000  *   9.01800000  *
   151       H(ATOM    181  H   SER A  11)    7.17800000  *   2.42900000  *   9.28400000  *
   152       H(ATOM    182  HA  SER A  11)    7.12600000  *   1.17000000  *   6.89400000  *
   153       H(ATOM    183  HB2 SER A  11)    5.34400000  *   0.75900000  *   9.05600000  *
   154       H(ATOM    184  HB3 SER A  11)    5.43900000  *  -0.23300000  *   7.79500000  *
   155       H(ATOM    185  HG  SER A  11)    6.64700000  *  -0.87100000  *   9.52100000  *
   156       N(ATOM    186  N   ASN A  12)    4.63000000  *   3.10400000  *   7.40000000  *
   157       C(ATOM    187  CA  ASN A  12)    3.54300000  *   3.84200000  *   6.71700000  *
   158       C(ATOM    188  C   ASN A  12)    4.09000000  *   4.78200000  *   5.67600000  *
   159       O(ATOM    189  O   ASN A  12)    3.49300000  *   4.94800000  *   4.57700000  *
   160       C(ATOM    190  CB  ASN A  12)    2.68800000  *   4.56800000  *   7.72900000  *
   161       C(ATOM    191  CG  ASN A  12)    1.85000000  *   3.64700000  *   8.58000000  *
   162       O(ATOM    192  OD1 ASN A  12)    1.57800000  *   2.48100000  *   8.19300000  *
   163       N(ATOM    193  ND2 ASN A  12)    1.43200000  *   4.11000000  *   9.73500000  *
   164       H(ATOM    194  H   ASN A  12)    4.79200000  *   3.29900000  *   8.26500000  *
   165       H(ATOM    195  HA  ASN A  12)    2.93700000  *   3.19600000  *   6.32200000  *
   166       H(ATOM    196  HB2 ASN A  12)    3.23400000  *   5.14100000  *   8.32000000  *
   167       H(ATOM    197  HB3 ASN A  12)    2.07300000  *   5.21700000  *   7.26700000  *
   168       H(ATOM    198 HD21 ASN A  12)    0.89500000  *   3.59100000  *  10.29900000  *
   169       H(ATOM    199 HD22 ASN A  12)    1.60400000  *   4.97700000  *   9.99100000  *
   170       N(ATOM    200  N   PHE A  13)    5.22700000  *   5.41800000  *   5.94900000  *
   171       C(ATOM    201  CA  PHE A  13)    5.88500000  *   6.30000000  *   5.01400000  *
   172       C(ATOM    202  C   PHE A  13)    6.27900000  *   5.53600000  *   3.74300000  *
   173       O(ATOM    203  O   PHE A  13)    6.05600000  *   6.01000000  *   2.60300000  *
   174       C(ATOM    204  CB  PHE A  13)    7.10100000  *   6.93100000  *   5.71000000  *
   175       C(ATOM    206  CG  PHE A  13)    7.86600000  *   7.84900000  *   4.80900000  *
   176       C(ATOM    208  CD1 PHE A  13)    7.54300000  *   9.22200000  *   4.75800000  *
   177       C(ATOM    210  CD2 PHE A  13)    8.93700000  *   7.38200000  *   4.02900000  *
   178       C(ATOM    212  CE1 PHE A  13)    8.25500000  *  10.08400000  *   3.93000000  *
   179       C(ATOM    214  CE2 PHE A  13)    9.61200000  *   8.21000000  *   3.14800000  *
   180       C(ATOM    216  CZ  PHE A  13)    9.28800000  *   9.57200000  *   3.13200000  *
   181       H(ATOM    218  H   PHE A  13)    5.64400000  *   5.25800000  *   6.74900000  *
   182       H(ATOM    219  HA  PHE A  13)    5.36700000  *   7.07600000  *   4.79200000  *
   183       H(ATOM    220  HB2 PHE A  13)    6.76100000  *   7.40500000  *   6.49100000  *
   184       H(ATOM    222  HB3 PHE A  13)    7.66300000  *   6.19000000  *   6.03200000  *
   185       H(ATOM    224  HD1 PHE A  13)    6.83500000  *   9.54500000  *   5.33200000  *
   186       H(ATOM    226  HD2 PHE A  13)    9.11900000  *   6.46200000  *   4.06400000  *
   187       H(ATOM    228  HE1 PHE A  13)    8.05900000  *  10.98500000  *   3.87600000  *
   188       H(ATOM    230  HE2 PHE A  13)   10.31600000  *   7.87400000  *   2.61700000  *
   189       H(ATOM    232  HZ  PHE A  13)    9.78200000  *  10.15800000  *   2.54600000  *
   190       N(ATOM    234  N   ASN A  14)    6.84500000  *   4.34300000  *   3.92200000  *
   191       C(ATOM    235  CA  ASN A  14)    7.27300000  *   3.58000000  *   2.77500000  *
   192       C(ATOM    236  C   ASN A  14)    6.10400000  *   3.12600000  *   1.89000000  *
   193       O(ATOM    237  O   ASN A  14)    6.23200000  *   3.10100000  *   0.67000000  *
   194       C(ATOM    238  CB  ASN A  14)    8.15500000  *   2.38900000  *   3.19000000  *
   195       C(ATOM    239  CG  ASN A  14)    9.53600000  *   2.86400000  *   3.68500000  *
   196       O(ATOM    240  OD1 ASN A  14)   10.01200000  *   3.91800000  *   3.27700000  *
   197       N(ATOM    241  ND2 ASN A  14)   10.15100000  *   2.00800000  *   4.51600000  *
   198       H(ATOM    242  H   ASN A  14)    7.00100000  *   4.03500000  *   4.75900000  *
   199       H(ATOM    243  HA  ASN A  14)    7.89000000  *   4.09900000  *   2.22400000  *
   200       H(ATOM    244  HB2 ASN A  14)    7.72600000  *   1.89600000  *   3.91600000  *
   201       H(ATOM    245  HB3 ASN A  14)    8.29500000  *   1.77300000  *   2.44200000  *
   202       H(ATOM    246 HD21 ASN A  14)   10.99700000  *   2.23800000  *   4.82600000  *
   203       H(ATOM    247 HD22 ASN A  14)    9.77100000  *   1.22300000  *   4.75200000  *
   204       N(ATOM    248  N   VAL A  15)    4.96300000  *   2.81100000  *   2.51000000  *
   205       C(ATOM    249  CA  VAL A  15)    3.78100000  *   2.48800000  *   1.70300000  *
   206       C(ATOM    250  C   VAL A  15)    3.28500000  *   3.75500000  *   0.98400000  *
   207       O(ATOM    251  O   VAL A  15)    2.95600000  *   3.70900000  *  -0.22600000  *
   208       C(ATOM    252  CB  VAL A  15)    2.70300000  *   1.81700000  *   2.54600000  *
   209       C(ATOM    253  CG1 VAL A  15)    1.36800000  *   1.77300000  *   1.78000000  *
   210       C(ATOM    254  CG2 VAL A  15)    3.14300000  *   0.41500000  *   2.94700000  *
   211       H(ATOM    255  H   VAL A  15)    4.88500000  *   2.89700000  *   3.40300000  *
   212       H(ATOM    256  HA  VAL A  15)    4.02900000  *   1.82600000  *   1.02900000  *
   213       H(ATOM    257  HB  VAL A  15)    2.55900000  *   2.37800000  *   3.33700000  *
   214       H(ATOM    258 HG11 VAL A  15)    1.50600000  *   1.44300000  *   0.87900000  *
   215       H(ATOM    259 HG12 VAL A  15)    0.73800000  *   1.19400000  *   2.24400000  *
   216       H(ATOM    260 HG13 VAL A  15)    0.97500000  *   2.67000000  *   1.73300000  *
   217       H(ATOM    261 HG21 VAL A  15)    4.01300000  *   0.37800000  *   3.37300000  *
   218       H(ATOM    262 HG22 VAL A  15)    2.49800000  *   0.00300000  *   3.55000000  *
   219       H(ATOM    263 HG23 VAL A  15)    3.16800000  *  -0.17500000  *   2.16600000  *
   220       N(ATOM    264  N   CYS A  16)    3.23300000  *   4.88900000  *   1.67900000  *
   221       C(ATOM    265  CA  CYS A  16)    2.84500000  *   6.15400000  *   1.08300000  *
   222       C(ATOM    266  C   CYS A  16)    3.66600000  *   6.47700000  *  -0.16700000  *
   223       O(ATOM    267  O   CYS A  16)    3.14500000  *   7.03000000  *  -1.13600000  *
   224       C(ATOM    268  CB  CYS A  16)    2.95500000  *   7.26800000  *   2.13900000  *
   225       S(ATOM    269  SG  CYS A  16)    2.55000000  *   8.91500000  *   1.58900000  *
   226       H(ATOM    270  H   CYS A  16)    3.47800000  *   4.87200000  *   2.56000000  *
   227       H(ATOM    271  HA  CYS A  16)    1.90300000  *   6.14200000  *   0.83200000  *
   228       H(ATOM    272  HB2 CYS A  16)    2.37200000  *   7.04600000  *   2.89200000  *
   229       H(ATOM    273  HB3 CYS A  16)    3.87800000  *   7.29100000  *   2.47700000  *
   230       N(ATOM    274  N   ARG A  17)    4.96300000  *   6.14600000  *  -0.12300000  *
   231       C(ATOM    275  CA  ARG A  17)    5.82100000  *   6.44800000  *  -1.24700000  *
   232       C(ATOM    276  C   ARG A  17)    5.62100000  *   5.55000000  *  -2.46700000  *
   233       O(ATOM    277  O   ARG A  17)    6.03400000  *   5.91600000  *  -3.54800000  *
   234       C(ATOM    278  CB  ARG A  17)    7.30300000  *   6.40700000  *  -0.77500000  *
   235       C(ATOM    279  CG  ARG A  17)    7.66400000  *   7.57100000  *   0.14500000  *
   236       C(ATOM    280  CD  ARG A  17)    7.89600000  *   8.87900000  *  -0.55700000  *
   237       N(ATOM    281  NE  ARG A  17)    9.13600000  *   8.82700000  *  -1.32700000  *
   238       C(ATOM    282  CZ  ARG A  17)    9.46800000  *   9.57600000  *  -2.37300000  *
   239       N(ATOM    283  NH1 ARG A  17)    8.59900000  *  10.41500000  *  -2.93900000  *
   240       N(ATOM    284  NH2 ARG A  17)   10.72000000  *   9.53400000  *  -2.85900000  *
   241       H(ATOM    285  H   ARG A  17)    5.31000000  *   5.75500000  *   0.61600000  *
   242       H(ATOM    286  HA  ARG A  17)    5.68600000  *   7.38200000  *  -1.53400000  *
   243       H(ATOM    287  HB2 ARG A  17)    7.42600000  *   5.54100000  *  -0.33200000  *
   244       H(ATOM    288  HB3 ARG A  17)    7.84900000  *   6.40400000  *  -1.57100000  *
   245       H(ATOM    289  HG2 ARG A  17)    6.96100000  *   7.70400000  *   0.80900000  *
   246       H(ATOM    290  HG3 ARG A  17)    8.43800000  *   7.36600000  *   0.66600000  *
   247       H(ATOM    291  HD2 ARG A  17)    7.15000000  *   9.01100000  *  -1.15600000  *
   248       H(ATOM    292  HD3 ARG A  17)    7.87300000  *   9.61600000  *   0.04800000  *
   249       H(ATOM    293  HE  ARG A  17)    9.72200000  *   8.12000000  *  -1.15900000  *
   250       H(ATOM    294 HH11 ARG A  17)    7.74800000  *  10.52300000  *  -2.63300000  *
   251       H(ATOM    295 HH12 ARG A  17)    8.87600000  *  10.94300000  *  -3.64500000  *
   252       H(ATOM    296 HH21 ARG A  17)   11.32500000  *   8.94300000  *  -2.53400000  *
   253       H(ATOM    297 HH22 ARG A  17)   10.92400000  *  10.03300000  *  -3.59000000  *
   254       N(ATOM    298  N   LEU A  18)    5.04500000  *   4.33800000  *  -2.26900000  *
   255       C(ATOM    299  CA  LEU A  18)    4.94500000  *   3.38800000  *  -3.38000000  *
   256       C(ATOM    300  C   LEU A  18)    4.31100000  *   4.00200000  *  -4.66400000  *
   257       O(ATOM    301  O   LEU A  18)    4.86300000  *   3.77700000  *  -5.74500000  *
   258       C(ATOM    302  CB  LEU A  18)    4.20000000  *   2.12500000  *  -2.97500000  *
   259       C(ATOM    303  CG  LEU A  18)    4.92700000  *   1.18600000  *  -2.01300000  *
   260       C(ATOM    304  CD1 LEU A  18)    3.98300000  *   0.07500000  *  -1.61700000  *
   261       C(ATOM    305  CD2 LEU A  18)    6.16300000  *   0.58700000  *  -2.63300000  *
   262       H(ATOM    306  H   LEU A  18)    4.77700000  *   4.11100000  *  -1.44000000  *
   263       H(ATOM    307  HA  LEU A  18)    5.86700000  *   3.12900000  *  -3.64700000  *
   264       H(ATOM    308  HB2 LEU A  18)    3.34700000  *   2.36800000  *  -2.52000000  *
   265       H(ATOM    309  HB3 LEU A  18)    3.98900000  *   1.59700000  *  -3.80000000  *
   266       H(ATOM    310  HG  LEU A  18)    5.19400000  *   1.69100000  *  -1.21100000  *
   267       H(ATOM    311 HD11 LEU A  18)    3.14100000  *   0.46500000  *  -1.29300000  *
   268       H(ATOM    312 HD12 LEU A  18)    3.82300000  *  -0.49500000  *  -2.40800000  *
   269       H(ATOM    313 HD13 LEU A  18)    4.40300000  *  -0.46200000  *  -0.89500000  *
   270       H(ATOM    314 HD21 LEU A  18)    5.91200000  *   0.11800000  *  -3.50200000  *
   271       H(ATOM    315 HD22 LEU A  18)    6.82900000  *   1.28600000  *  -2.86500000  *
   272       H(ATOM    316 HD23 LEU A  18)    6.58500000  *  -0.09300000  *  -2.06000000  *
   273       N(ATOM    317  N   PRO A  19)    3.20900000  *   4.74700000  *  -4.56400000  *
   274       C(ATOM    318  CA  PRO A  19)    2.65000000  *   5.34300000  *  -5.80200000  *
   275       C(ATOM    319  C   PRO A  19)    3.42100000  *   6.52500000  *  -6.31200000  *
   276       O(ATOM    320  O   PRO A  19)    3.07600000  *   7.05600000  *  -7.38300000  *
   277       C(ATOM    321  CB  PRO A  19)    1.22900000  *   5.75900000  *  -5.43100000  *
   278       C(ATOM    322  CG  PRO A  19)    1.23800000  *   5.88600000  *  -3.91700000  *
   279       C(ATOM    323  CD  PRO A  19)    2.25700000  *   4.86800000  *  -3.43900000  *
   280       H(ATOM    324  HA  PRO A  19)    2.65400000  *   4.66900000  *  -6.49900000  *
   281       H(ATOM    325  HB2 PRO A  19)    0.93100000  *   6.51400000  *  -5.81700000  *
   282       H(ATOM    326  HB3 PRO A  19)    0.59700000  *   5.09500000  *  -5.71500000  *
   283       H(ATOM    327  HG2 PRO A  19)    1.46700000  *   6.66200000  *  -3.69400000  *
   284       H(ATOM    328  HG3 PRO A  19)    0.36200000  *   5.68900000  *  -3.52000000  *
   285       H(ATOM    329  HD2 PRO A  19)    2.68200000  *   5.15900000  *  -2.60900000  *
   286       H(ATOM    330  HD3 PRO A  19)    1.88900000  *   3.96800000  *  -3.23000000  *
   287       N(ATOM    331  N   GLY A  20)    4.42500000  *   7.01100000  *  -5.55600000  *
   288       C(ATOM    332  CA  GLY A  20)    5.23000000  *   8.15400000  *  -5.95600000  *
   289       C(ATOM    333  C   GLY A  20)    4.90200000  *   9.45000000  *  -5.25900000  *
   290       O(ATOM    334  O   GLY A  20)    5.44100000  *  10.51000000  *  -5.63400000  *
   291       H(ATOM    335  H   GLY A  20)    4.61900000  *   6.58800000  *  -4.77600000  *
   292       H(ATOM    336  HA2 GLY A  20)    6.18500000  *   7.93500000  *  -5.79700000  *
   293       H(ATOM    337  HA3 GLY A  20)    5.16800000  *   8.26200000  *  -6.95800000  *
   294       N(ATOM    338  N   THR A  21)    4.06500000  *   9.39200000  *  -4.23400000  *
   295       C(ATOM    339  CA  THR A  21)    3.67700000  *  10.55900000  *  -3.46200000  *
   296       C(ATOM    340  C   THR A  21)    4.90300000  *  11.35500000  *  -3.01900000  *
   297       O(ATOM    341  O   THR A  21)    5.84400000  *  10.70900000  *  -2.46500000  *
   298       C(ATOM    342  CB  THR A  21)    2.94500000  *  10.10800000  *  -2.19700000  *
   299       O(ATOM    343  OG1 THR A  21)    1.96500000  *   9.11200000  *  -2.55900000  *
   300       C(ATOM    344  CG2 THR A  21)    2.28700000  *  11.25700000  *  -1.48200000  *
   301       H(ATOM    345  H   THR A  21)    3.68800000  *   8.58700000  *  -3.99700000  *
   302       H(ATOM    346  HA  THR A  21)    3.07700000  *  11.12800000  *  -3.96300000  *
   303       H(ATOM    347  HB  THR A  21)    3.61800000  *   9.65500000  *  -1.58900000  *
   304       H(ATOM    348  HG1 THR A  21)    2.13500000  *   8.34700000  *  -2.15600000  *
   305       H(ATOM    349 HG21 THR A  21)    2.93900000  *  12.02000000  *  -1.30800000  *
   306       H(ATOM    350 HG22 THR A  21)    1.57300000  *  11.64700000  *  -2.05900000  *
   307       H(ATOM    351 HG23 THR A  21)    1.90200000  *  10.99700000  *  -0.61900000  *
   308       N(ATOM    352  N   SER A  22)    4.90900000  *  12.65900000  *  -3.12700000  *
   309       C(ATOM    354  CA  SER A  22)    6.03500000  *  13.45900000  *  -2.62200000  *
   310       C(ATOM    356  C   SER A  22)    6.36200000  *  13.13900000  *  -1.17400000  *
   311       O(ATOM    358  O   SER A  22)    5.47300000  *  12.95900000  *  -0.32300000  *
   312       C(ATOM    360  CB  SER A  22)    5.64400000  *  14.93400000  *  -2.67900000  *
   313       O(ATOM    362  OG  SER A  22)    4.71200000  *  15.25000000  *  -1.67700000  *
   314       H(ATOM    364  H   SER A  22)    4.32300000  *  13.09300000  *  -3.66300000  *
   315       H(ATOM    366  HA  SER A  22)    6.80800000  *  13.30400000  *  -3.20900000  *
   316       H(ATOM    368  HB2 SER A  22)    6.46300000  *  15.47100000  *  -2.53400000  *
   317       H(ATOM    370  HB3 SER A  22)    5.29200000  *  15.15100000  *  -3.58500000  *
   318       N(ATOM    386  N   GLU A  23)    7.67400000  *  13.18400000  *  -0.85400000  *
   319       C(ATOM    387  CA  GLU A  23)    8.08000000  *  12.98700000  *   0.54200000  *
   320       C(ATOM    388  C   GLU A  23)    7.37600000  *  13.93300000  *   1.48000000  *
   321       O(ATOM    389  O   GLU A  23)    7.03500000  *  13.56400000  *   2.60100000  *
   322       C(ATOM    390  CB  GLU A  23)    9.62500000  *  13.15100000  *   0.69800000  *
   323       C(ATOM    391  CG  GLU A  23)   10.38700000  *  12.02100000  *   0.05800000  *
   324       C(ATOM    393  CD  GLU A  23)   11.88500000  *  12.04800000  *   0.39900000  *
   325       O(ATOM    395  OE1 GLU A  23)   12.42800000  *  13.09600000  *   0.74300000  *
   326       O(ATOM    397  OE2 GLU A  23)   12.52100000  *  10.92300000  *   0.29300000  *
   327       H(ATOM    399  H   GLU A  23)    8.29400000  *  13.35000000  *  -1.47600000  *
   328       H(ATOM    400  HA  GLU A  23)    7.86900000  *  12.05700000  *   0.79400000  *
   329       H(ATOM    401  HB2 GLU A  23)    9.87800000  *  14.00500000  *   0.27100000  *
   330       H(ATOM    402  HB3 GLU A  23)    9.78700000  *  13.21900000  *   1.65300000  *
   331       H(ATOM    403  HG2 GLU A  23)   10.08500000  *  11.13000000  *   0.29900000  *
   332       H(ATOM    404  HG3 GLU A  23)   10.35400000  *  12.09900000  *  -0.91800000  *
   333       N(ATOM    405  N   ALA A  24)    7.16000000  *  15.19400000  *   1.05900000  *
   334       C(ATOM    406  CA  ALA A  24)    6.59200000  *  16.18400000  *   1.97200000  *
   335       C(ATOM    407  C   ALA A  24)    5.17500000  *  15.81800000  *   2.41000000  *
   336       O(ATOM    408  O   ALA A  24)    4.77700000  *  16.01000000  *   3.54000000  *
   337       C(ATOM    409  CB  ALA A  24)    6.62600000  *  17.59800000  *   1.37300000  *
   338       H(ATOM    410  H   ALA A  24)    7.50500000  *  15.46000000  *   0.26200000  *
   339       H(ATOM    411  HA  ALA A  24)    7.15300000  *  16.23200000  *   2.78000000  *
   340       H(ATOM    412  HB1 ALA A  24)    7.54300000  *  17.84200000  *   1.13700000  *
   341       H(ATOM    413  HB2 ALA A  24)    6.07600000  *  17.63100000  *   0.56300000  *
   342       H(ATOM    414  HB3 ALA A  24)    6.26300000  *  18.24000000  *   2.02000000  *
   343       N(ATOM    415  N   ILE A  25)    4.37700000  *  15.26500000  *   1.44700000  *
   344       C(ATOM    417  CA  ILE A  25)    3.03300000  *  14.78600000  *   1.80000000  *
   345       C(ATOM    419  C   ILE A  25)    3.07700000  *  13.51400000  *   2.64100000  *
   346       O(ATOM    421  O   ILE A  25)    2.31000000  *  13.36700000  *   3.58100000  *
   347       C(ATOM    423  CB  ILE A  25)    2.18600000  *  14.57700000  *   0.51800000  *
   348       C(ATOM    425  CG1 ILE A  25)    1.65800000  *  15.85500000  *  -0.08600000  *
   349       C(ATOM    427  CG2 ILE A  25)    0.96200000  *  13.69400000  *   0.78400000  *
   350       C(ATOM    429  CD1 ILE A  25)    0.62300000  *  16.57200000  *   0.76100000  *
   351       H(ATOM    431  H   ILE A  25)    4.72800000  *  15.07000000  *   0.64400000  *
   352       H(ATOM    433  HA  ILE A  25)    2.57300000  *  15.48000000  *   2.31200000  *
   353       H(ATOM    435  HB  ILE A  25)    2.76900000  *  14.10600000  *  -0.11800000  *
   354       H(ATOM    437 HG12 ILE A  25)    2.43200000  *  16.46000000  *  -0.22500000  *
   355       H(ATOM    439 HG13 ILE A  25)    1.24300000  *  15.65800000  *  -0.96800000  *
   356       H(ATOM    441 HG21 ILE A  25)    0.42300000  *  14.09500000  *   1.50600000  *
   357       H(ATOM    443 HG22 ILE A  25)    0.45100000  *  13.62200000  *  -0.05900000  *
   358       H(ATOM    445 HG23 ILE A  25)    1.27800000  *  12.79600000  *   1.05900000  *
   359       H(ATOM    447 HD11 ILE A  25)    0.98900000  *  16.78900000  *   1.66800000  *
   360       H(ATOM    449 HD12 ILE A  25)    0.34400000  *  17.40200000  *   0.28200000  *
   361       H(ATOM    451 HD13 ILE A  25)   -0.17000000  *  15.97400000  *   0.84300000  *
   362       N(ATOM    472  N   CYS A  26)    4.01000000  *  12.60700000  *   2.30700000  *
   363       C(ATOM    473  CA  CYS A  26)    4.11600000  *  11.43400000  *   3.16100000  *
   364       C(ATOM    474  C   CYS A  26)    4.59000000  *  11.79000000  *   4.57600000  *
   365       O(ATOM    475  O   CYS A  26)    4.22200000  *  11.09000000  *   5.54000000  *
   366       C(ATOM    476  CB  CYS A  26)    5.02200000  *  10.37800000  *   2.54200000  *
   367       S(ATOM    477  SG  CYS A  26)    4.34300000  *   9.67700000  *   1.00400000  *
   368       H(ATOM    478  H   CYS A  26)    4.56200000  *  12.74500000  *   1.61300000  *
   369       H(ATOM    479  HA  CYS A  26)    3.23600000  *  11.00400000  *   3.23400000  *
   370       H(ATOM    480  HB2 CYS A  26)    5.87400000  *  10.78000000  *   2.29400000  *
   371       H(ATOM    481  HB3 CYS A  26)    5.16900000  *   9.62900000  *   3.13500000  *
   372       N(ATOM    482  N   ALA A  27)    5.38700000  *  12.84500000  *   4.70100000  *
   373       C(ATOM    483  CA  ALA A  27)    5.81800000  *  13.34000000  *   6.02300000  *
   374       C(ATOM    484  C   ALA A  27)    4.64800000  *  13.79200000  *   6.87000000  *
   375       O(ATOM    485  O   ALA A  27)    4.46600000  *  13.32900000  *   7.98600000  *
   376       C(ATOM    486  CB  ALA A  27)    6.88200000  *  14.42700000  *   5.83800000  *
   377       H(ATOM    487  H   ALA A  27)    5.62500000  *  13.32500000  *   3.97200000  *
   378       H(ATOM    488  HA  ALA A  27)    6.28000000  *  12.59500000  *   6.47700000  *
   379       H(ATOM    489  HB1 ALA A  27)    7.62800000  *  14.06800000  *   5.30400000  *
   380       H(ATOM    490  HB2 ALA A  27)    6.50200000  *  15.19300000  *   5.35400000  *
   381       H(ATOM    491  HB3 ALA A  27)    7.21300000  *  14.73700000  *   6.70200000  *
   382       N(ATOM    492  N   THR A  28)    3.82900000  *  14.74100000  *   6.33800000  *
   383       C(ATOM    493  CA  THR A  28)    2.70800000  *  15.16300000  *   7.15000000  *
   384       C(ATOM    494  C   THR A  28)    1.69600000  *  14.05800000  *   7.40100000  *
   385       O(ATOM    495  O   THR A  28)    0.98400000  *  14.05100000  *   8.40600000  *
   386       C(ATOM    496  CB  THR A  28)    2.00900000  *  16.42600000  *   6.56700000  *
   387       O(ATOM    497  OG1 THR A  28)    1.67800000  *  16.12200000  *   5.19900000  *
   388       C(ATOM    498  CG2 THR A  28)    2.87800000  *  17.65400000  *   6.66600000  *
   389       H(ATOM    499  H   THR A  28)    3.97300000  *  15.03000000  *   5.50600000  *
   390       H(ATOM    500  HA  THR A  28)    3.04500000  *  15.47400000  *   8.03100000  *
   391       H(ATOM    501  HB  THR A  28)    1.15700000  *  16.54500000  *   7.08600000  *
   392       H(ATOM    502  HG1 THR A  28)    1.02400000  *  16.66600000  *   4.92500000  *
   393       H(ATOM    503 HG21 THR A  28)    3.74100000  *  17.49000000  *   6.18900000  *
   394       H(ATOM    504 HG22 THR A  28)    2.45700000  *  18.44600000  *   6.26300000  *
   395       H(ATOM    505 HG23 THR A  28)    3.10800000  *  17.87700000  *   7.62300000  *
   396       N(ATOM    506  N   TYR A  29)    1.59800000  *  13.08200000  *   6.45500000  *
   397       C(ATOM    507  CA  TYR A  29)    0.68200000  *  12.00700000  *   6.65900000  *
   398       C(ATOM    508  C   TYR A  29)    1.06300000  *  11.05900000  *   7.80800000  *
   399       O(ATOM    509  O   TYR A  29)    0.20300000  *  10.50700000  *   8.46300000  *
   400       C(ATOM    510  CB  TYR A  29)    0.56700000  *  11.22300000  *   5.28800000  *
   401       C(ATOM    512  CG  TYR A  29)    0.02000000  *   9.81400000  *   5.25100000  *
   402       C(ATOM    514  CD1 TYR A  29)   -1.33200000  *   9.55400000  *   5.51400000  *
   403       C(ATOM    516  CD2 TYR A  29)    0.84500000  *   8.73600000  *   4.93400000  *
   404       C(ATOM    518  CE1 TYR A  29)   -1.82100000  *   8.25000000  *   5.51600000  *
   405       C(ATOM    520  CE2 TYR A  29)    0.38500000  *   7.42900000  *   4.94200000  *
   406       C(ATOM    522  CZ  TYR A  29)   -0.94400000  *   7.19800000  *   5.24600000  *
   407       O(ATOM    524  OH  TYR A  29)   -1.38700000  *   5.91500000  *   5.23600000  *
   408       H(ATOM    526  H   TYR A  29)    2.11400000  *  13.14800000  *   5.71300000  *
   409       H(ATOM    527  HA  TYR A  29)   -0.22900000  *  12.33000000  *   6.82400000  *
   410       H(ATOM    528  HB2 TYR A  29)   -0.01700000  *  11.80800000  *   4.73200000  *
   411       H(ATOM    530  HB3 TYR A  29)    1.46900000  *  11.26200000  *   4.87700000  *
   412       H(ATOM    532  HD1 TYR A  29)   -1.93600000  *  10.29500000  *   5.75400000  *
   413       H(ATOM    534  HD2 TYR A  29)    1.80000000  *   8.91200000  *   4.70900000  *
   414       H(ATOM    536  HE1 TYR A  29)   -2.76100000  *   8.08000000  *   5.75200000  *
   415       H(ATOM    538  HE2 TYR A  29)    0.97600000  *   6.67600000  *   4.71000000  *
   416       N(ATOM    540  N   THR A  30)    2.41200000  *  10.87000000  *   7.98600000  *
   417       C(ATOM    541  CA  THR A  30)    2.91000000  *   9.89100000  *   8.93400000  *
   418       C(ATOM    542  C   THR A  30)    3.53000000  *  10.40600000  *  10.22900000  *
   419       O(ATOM    543  O   THR A  30)    3.69000000  *   9.60300000  *  11.12800000  *
   420       C(ATOM    544  CB  THR A  30)    4.02200000  *   9.02500000  *   8.26100000  *
   421       O(ATOM    545  OG1 THR A  30)    5.07600000  *   9.88600000  *   7.85800000  *
   422       C(ATOM    546  CG2 THR A  30)    3.49200000  *   8.23800000  *   7.07800000  *
   423       H(ATOM    547  H   THR A  30)    2.98100000  *  11.28500000  *   7.42600000  *
   424       H(ATOM    548  HA  THR A  30)    2.20700000  *   9.24300000  *   9.15300000  *
   425       H(ATOM    549  HB  THR A  30)    4.35700000  *   8.39300000  *   8.97400000  *
   426       H(ATOM    550  HG1 THR A  30)    5.14000000  *   9.93600000  *   6.97200000  *
   427       H(ATOM    551 HG21 THR A  30)    2.67700000  *   7.69800000  *   7.34400000  *
   428       H(ATOM    552 HG22 THR A  30)    3.22200000  *   8.85100000  *   6.35700000  *
   429       H(ATOM    553 HG23 THR A  30)    4.17500000  *   7.61200000  *   6.73700000  *
   430       N(ATOM    554  N   GLY A  31)    3.89700000  *  11.67000000  *  10.23100000  *
   431       C(ATOM    555  CA  GLY A  31)    4.71800000  *  12.22100000  *  11.31600000  *
   432       C(ATOM    556  C   GLY A  31)    6.22100000  *  12.14300000  *  11.06100000  *
   433       O(ATOM    557  O   GLY A  31)    6.98500000  *  12.68000000  *  11.88900000  *
   434       H(ATOM    558  H   GLY A  31)    3.82200000  *  12.19000000  *   9.48000000  *
   435       H(ATOM    559  HA2 GLY A  31)    4.47200000  *  13.15900000  *  11.45500000  *
   436       H(ATOM    560  HA3 GLY A  31)    4.48500000  *  11.74900000  *  12.17000000  *
   437       N(ATOM    561  N   CYS A  32)    6.64600000  *  11.50900000  *   9.97100000  *
   438       C(ATOM    562  CA  CYS A  32)    8.05000000  *  11.58900000  *   9.56000000  *
   439       C(ATOM    563  C   CYS A  32)    8.35200000  *  13.00800000  *   9.14800000  *
   440       O(ATOM    564  O   CYS A  32)    7.46100000  *  13.87500000  *   8.94600000  *
   441       C(ATOM    565  CB  CYS A  32)    8.36100000  *  10.61800000  *   8.45300000  *
   442       S(ATOM    566  SG  CYS A  32)    7.98700000  *   8.85900000  *   8.83600000  *
   443       H(ATOM    567  H   CYS A  32)    6.03500000  *  11.19700000  *   9.37700000  *
   444       H(ATOM    568  HA  CYS A  32)    8.61800000  *  11.32900000  *  10.31800000  *
   445       H(ATOM    569  HB2 CYS A  32)    7.81600000  *  10.81200000  *   7.66100000  *
   446       H(ATOM    570  HB3 CYS A  32)    9.29400000  *  10.62800000  *   8.18600000  *
   447       N(ATOM    571  N   ILE A  33)    9.65400000  *  13.31400000  *   8.96900000  *
   448       C(ATOM    572  CA  ILE A  33)   10.15100000  *  14.63400000  *   8.67100000  *
   449       C(ATOM    573  C   ILE A  33)   11.20300000  *  14.52100000  *   7.57800000  *
   450       O(ATOM    574  O   ILE A  33)   11.84100000  *  13.47100000  *   7.38000000  *
   451       C(ATOM    575  CB  ILE A  33)   10.73600000  *  15.34800000  *   9.92400000  *
   452       C(ATOM    576  CG1 ILE A  33)   11.97900000  *  14.63700000  *  10.47700000  *
   453       C(ATOM    577  CG2 ILE A  33)    9.64900000  *  15.46300000  *  10.97100000  *
   454       C(ATOM    578  CD1 ILE A  33)   12.66000000  *  15.41800000  *  11.58200000  *
   455       H(ATOM    579  H   ILE A  33)   10.28100000  *  12.65300000  *   9.09500000  *
   456       H(ATOM    580  HA  ILE A  33)    9.42800000  *  15.22300000  *   8.37100000  *
   457       H(ATOM    581  HB  ILE A  33)   10.99100000  *  16.24600000  *   9.61400000  *
   458       H(ATOM    582 HG12 ILE A  33)   11.66900000  *  13.77000000  *  10.83000000  *
   459       H(ATOM    583 HG13 ILE A  33)   12.61700000  *  14.50200000  *   9.73900000  *
   460       H(ATOM    584 HG21 ILE A  33)    9.21200000  *  14.58400000  *  11.11100000  *
   461       H(ATOM    585 HG22 ILE A  33)   10.05400000  *  15.78800000  *  11.81900000  *
   462       H(ATOM    586 HG23 ILE A  33)    8.96600000  *  16.12400000  *  10.67500000  *
   463       H(ATOM    587 HD11 ILE A  33)   12.76400000  *  16.36100000  *  11.26700000  *
   464       H(ATOM    588 HD12 ILE A  33)   12.11700000  *  15.39300000  *  12.42200000  *
   465       H(ATOM    589 HD13 ILE A  33)   13.56800000  *  15.03100000  *  11.72400000  *
   466       N(ATOM    590  N   ILE A  34)   11.42500000  *  15.63800000  *   6.91000000  *
   467       C(ATOM    591  CA  ILE A  34)   12.46300000  *  15.80300000  *   5.90000000  *
   468       C(ATOM    592  C   ILE A  34)   13.47100000  *  16.80000000  *   6.49200000  *
   469       O(ATOM    593  O   ILE A  34)   13.05200000  *  17.90200000  *   6.90900000  *
   470       C(ATOM    594  CB  ILE A  34)   11.95600000  *  16.34300000  *   4.56000000  *
   471       C(ATOM    595  CG1 ILE A  34)   10.85800000  *  15.44700000  *   4.00300000  *
   472       C(ATOM    596  CG2 ILE A  34)   13.11700000  *  16.47600000  *   3.58000000  *
   473       C(ATOM    597  CD1 ILE A  34)   10.20700000  *  16.14000000  *   2.79800000  *
   474       H(ATOM    599  H   ILE A  34)   10.99600000  *  16.42400000  *   7.14200000  *
   475       H(ATOM    600  HA  ILE A  34)   12.91500000  *  14.96000000  *   5.73100000  *
   476       H(ATOM    601  HB  ILE A  34)   11.59700000  *  17.24600000  *   4.73400000  *
   477       H(ATOM    602 HG12 ILE A  34)   11.27800000  *  14.61500000  *   3.69300000  *
   478       H(ATOM    603 HG13 ILE A  34)   10.17200000  *  15.28300000  *   4.67300000  *
   479       H(ATOM    604 HG21 ILE A  34)   12.82700000  *  17.05300000  *   2.82700000  *
   480       H(ATOM    605 HG22 ILE A  34)   13.37200000  *  15.57400000  *   3.26000000  *
   481       H(ATOM    606 HG23 ILE A  34)   13.88000000  *  16.90300000  *   4.04300000  *
   482       H(ATOM    607 HD11 ILE A  34)   10.89600000  *  16.29700000  *   2.09000000  *
   483       H(ATOM    609 HD12 ILE A  34)    9.48100000  *  15.54300000  *   2.47500000  *
   484       H(ATOM    611 HD13 ILE A  34)    9.82000000  *  16.99300000  *   3.11900000  *
   485       N(ATOM    613  N   ILE A  35)   14.76700000  *  16.44500000  *   6.43700000  *
   486       C(ATOM    614  CA  ILE A  35)   15.80100000  *  17.36200000  *   6.84500000  *
   487       C(ATOM    615  C   ILE A  35)   16.81000000  *  17.52900000  *   5.72000000  *
   488       O(ATOM    616  O   ILE A  35)   16.97300000  *  16.61900000  *   4.91700000  *
   489       C(ATOM    617  CB  ILE A  35)   16.53100000  *  16.88200000  *   8.15700000  *
   490       C(ATOM    618  CG1 ILE A  35)   17.20400000  *  15.53800000  *   7.95900000  *
   491       C(ATOM    619  CG2 ILE A  35)   15.53700000  *  16.88900000  *   9.31600000  *
   492       C(ATOM    620  CD1 ILE A  35)   18.11400000  *  15.14600000  *   9.12900000  *
   493       H(ATOM    621  H   ILE A  35)   14.99100000  *  15.66500000  *   6.03500000  *
   494       H(ATOM    622  HA  ILE A  35)   15.43600000  *  18.23600000  *   7.08200000  *
   495       H(ATOM    623  HB  ILE A  35)   17.20500000  *  17.58100000  *   8.31600000  *
   496       H(ATOM    624 HG12 ILE A  35)   16.49200000  *  14.85600000  *   7.89300000  *
   497       H(ATOM    625 HG13 ILE A  35)   17.75000000  *  15.54200000  *   7.14500000  *
   498       H(ATOM    626 HG21 ILE A  35)   15.15100000  *  17.78800000  *   9.41500000  *
   499       H(ATOM    627 HG22 ILE A  35)   14.82500000  *  16.22200000  *   9.13400000  *
   500       H(ATOM    628 HG23 ILE A  35)   16.02900000  *  16.64300000  *  10.14500000  *
   501       H(ATOM    629 HD11 ILE A  35)   17.57500000  *  15.09700000  *   9.96900000  *
   502       H(ATOM    630 HD12 ILE A  35)   18.53500000  *  14.27500000  *   8.90300000  *
   503       H(ATOM    631 HD13 ILE A  35)   18.82000000  *  15.84100000  *   9.19400000  *
   504       N(ATOM    632  N   PRO A  36)   17.54300000  *  18.64300000  *   5.68100000  *
   505       C(ATOM    633  CA  PRO A  36)   18.54000000  *  18.82900000  *   4.63300000  *
   506       C(ATOM    634  C   PRO A  36)   19.81800000  *  18.04000000  *   4.84600000  *
   507       O(ATOM    635  O   PRO A  36)   20.54400000  *  17.78900000  *   3.88000000  *
   508       C(ATOM    636  CB  PRO A  36)   18.74500000  *  20.33700000  *   4.62400000  *
   509       C(ATOM    637  CG  PRO A  36)   18.29700000  *  20.86700000  *   5.94500000  *
   510       C(ATOM    638  CD  PRO A  36)   17.24300000  *  19.87000000  *   6.44900000  *
   511       H(ATOM    639  HA  PRO A  36)   18.21000000  *  18.49900000  *   3.78400000  *
   512       H(ATOM    640  HB2 PRO A  36)   19.59200000  *  20.60000000  *   4.40900000  *
   513       H(ATOM    641  HB3 PRO A  36)   18.24000000  *  20.73500000  *   3.89200000  *
   514       H(ATOM    642  HG2 PRO A  36)   18.92700000  *  20.89300000  *   6.50300000  *
   515       H(ATOM    643  HG3 PRO A  36)   17.88200000  *  21.75700000  *   5.89700000  *
   516       H(ATOM    644  HD2 PRO A  36)   17.34700000  *  19.74000000  *   7.41200000  *
   517       H(ATOM    645  HD3 PRO A  36)   16.31000000  *  20.12900000  *   6.31400000  *
   518       N(ATOM    646  N   GLY A  37)   20.08800000  *  17.75800000  *   6.09800000  *
   519       C(ATOM    647  CA  GLY A  37)   21.28900000  *  16.99200000  *   6.48700000  *
   520       C(ATOM    648  C   GLY A  37)   21.01600000  *  15.52100000  *   6.38500000  *
   521       O(ATOM    649  O   GLY A  37)   20.00600000  *  15.06900000  *   5.80700000  *
   522       H(ATOM    650  H   GLY A  37)   19.56100000  *  18.02000000  *   6.79200000  *
   523       H(ATOM    651  HA2 GLY A  37)   22.02600000  *  17.25200000  *   5.90100000  *
   524       H(ATOM    652  HA3 GLY A  37)   21.55100000  *  17.26900000  *   7.41200000  *
   525       N(ATOM    653  N   ALA A  38)   21.91800000  *  14.71400000  *   6.93700000  *
   526       C(ATOM    654  CA  ALA A  38)   21.88000000  *  13.27800000  *   6.87700000  *
   527       C(ATOM    655  C   ALA A  38)   21.76300000  *  12.58200000  *   8.24900000  *
   528       O(ATOM    656  O   ALA A  38)   21.70100000  *  11.34700000  *   8.32500000  *
   529       C(ATOM    657  CB  ALA A  38)   23.12300000  *  12.72500000  *   6.15600000  *
   530       H(ATOM    658  H   ALA A  38)   22.66600000  *  15.08200000  *   7.35000000  *
   531       H(ATOM    659  HA  ALA A  38)   21.11700000  *  12.97700000  *   6.33300000  *
   532       H(ATOM    660  HB1 ALA A  38)   23.93100000  *  13.03100000  *   6.61600000  *
   533       H(ATOM    661  HB2 ALA A  38)   23.10100000  *  11.74600000  *   6.16600000  *
   534       H(ATOM    662  HB3 ALA A  38)   23.14100000  *  13.04600000  *   5.23300000  *
   535       N(ATOM    663  N   THR A  39)   21.71700000  *  13.40100000  *   9.29600000  *
   536       C(ATOM    664  CA  THR A  39)   21.78400000  *  12.87400000  *  10.64400000  *
   537       C(ATOM    665  C   THR A  39)   20.48700000  *  13.10700000  *  11.37100000  *
   538       O(ATOM    666  O   THR A  39)   20.19900000  *  14.23600000  *  11.81500000  *
   539       C(ATOM    667  CB  THR A  39)   22.95500000  *  13.57200000  *  11.49100000  *
   540       O(ATOM    669  OG1 THR A  39)   24.15200000  *  13.56900000  *  10.77400000  *
   541       C(ATOM    671  CG2 THR A  39)   23.19900000  *  12.88700000  *  12.82500000  *
   542       H(ATOM    673  H   THR A  39)   21.81700000  *  14.30200000  *   9.18900000  *
   543       H(ATOM    674  HA  THR A  39)   22.04200000  *  11.94500000  *  10.64800000  *
   544       H(ATOM    675  HB  THR A  39)   22.62300000  *  14.51000000  *  11.63600000  *
   545       H(ATOM    676  HG1 THR A  39)   24.27200000  *  12.87800000  *  10.24000000  *
   546       H(ATOM    677 HG21 THR A  39)   23.41900000  *  11.92700000  *  12.65600000  *
   547       H(ATOM    678 HG22 THR A  39)   23.93000000  *  13.30200000  *  13.31700000  *
   548       H(ATOM    679 HG23 THR A  39)   22.36700000  *  12.88700000  *  13.39700000  *
   549       N(ATOM    680  N   CYS A  40)   19.71700000  *  12.03500000  *  11.53600000  *
   550       C(ATOM    681  CA  CYS A  40)   18.42300000  *  12.14700000  *  12.21500000  *
   551       C(ATOM    682  C   CYS A  40)   18.63100000  *  12.25600000  *  13.71000000  *
   552       O(ATOM    683  O   CYS A  40)   19.46700000  *  11.51100000  *  14.26600000  *
   553       C(ATOM    684  CB  CYS A  40)   17.55800000  *  10.93700000  *  11.86200000  *
   554       S(ATOM    685  SG  CYS A  40)   17.10000000  *  10.84800000  *  10.11000000  *
   555       H(ATOM    686  H   CYS A  40)   19.94600000  *  11.23000000  *  11.19700000  *
   556       H(ATOM    687  HA  CYS A  40)   17.94000000  *  12.92500000  *  11.88900000  *
   557       H(ATOM    688  HB2 CYS A  40)   18.02800000  *  10.11300000  *  12.07200000  *
   558       H(ATOM    689  HB3 CYS A  40)   16.72200000  *  10.95400000  *  12.37300000  *
   559       N(ATOM    690  N   PRO A  41)   17.80900000  *  13.04100000  *  14.39600000  *
   560       C(ATOM    691  CA  PRO A  41)   17.90500000  *  13.20500000  *  15.84700000  *
   561       C(ATOM    692  C   PRO A  41)   17.32400000  *  12.02600000  *  16.56700000  *
   562       O(ATOM    693  O   PRO A  41)   16.59500000  *  11.18900000  *  15.99100000  *
   563       C(ATOM    694  CB  PRO A  41)   17.19100000  *  14.51400000  *  16.10800000  *
   564       C(ATOM    695  CG  PRO A  41)   16.05000000  *  14.45900000  *  15.05100000  *
   565       C(ATOM    696  CD  PRO A  41)   16.77000000  *  13.95400000  *  13.80500000  *
   566       H(ATOM    697  HA  PRO A  41)   18.84000000  *  13.24000000  *  16.11600000  *
   567       H(ATOM    698  HB2 PRO A  41)   16.85000000  *  14.66800000  *  16.90700000  *
   568       H(ATOM    699  HB3 PRO A  41)   17.73900000  *  15.27400000  *  15.91500000  *
   569       H(ATOM    700  HG2 PRO A  41)   15.48100000  *  13.91300000  *  15.31200000  *
   570       H(ATOM    701  HG3 PRO A  41)   15.67600000  *  15.33500000  *  14.90100000  *
   571       H(ATOM    702  HD2 PRO A  41)   16.17000000  *  13.46800000  *  13.21800000  *
   572       H(ATOM    703  HD3 PRO A  41)   17.22000000  *  14.62400000  *  13.25600000  *
   573       N(ATOM    704  N   GLY A  42)   17.60400000  *  11.96500000  *  17.89600000  *
   574       C(ATOM    705  CA  GLY A  42)   17.20400000  *  10.80800000  *  18.70100000  *
   575       C(ATOM    706  C   GLY A  42)   15.70900000  *  10.57000000  *  18.86200000  *
   576       O(ATOM    707  O   GLY A  42)   15.28000000  *   9.47600000  *  19.23800000  *
   577       H(ATOM    708  H   GLY A  42)   18.13400000  *  12.58000000  *  18.27500000  *
   578       H(ATOM    709  HA2 GLY A  42)   17.59900000  *   9.99700000  *  18.28800000  *
   579       H(ATOM    710  HA3 GLY A  42)   17.64000000  *  10.87500000  *  19.60200000  *
   580       N(ATOM    711  N   ASP A  43)   14.92500000  *  11.67700000  *  18.64500000  *
   581       C(ATOM    712  CA  ASP A  43)   13.46900000  *  11.53600000  *  18.72800000  *
   582       C(ATOM    713  C   ASP A  43)   12.82900000  *  11.27300000  *  17.30800000  *
   583       O(ATOM    714  O   ASP A  43)   11.60800000  *  11.11800000  *  17.27000000  *
   584       C(ATOM    715  CB  ASP A  43)   12.77600000  *  12.65300000  *  19.45600000  *
   585       C(ATOM    717  CG  ASP A  43)   13.08300000  *  14.01300000  *  18.90000000  *
   586       O(ATOM    719  OD1 ASP A  43)   14.05200000  *  14.18000000  *  18.16500000  *
   587       O(ATOM    721  OD2 ASP A  43)   12.24400000  *  14.90200000  *  19.23900000  *
   588       H(ATOM    723  H   ASP A  43)   15.28900000  *  12.43500000  *  18.38000000  *
   589       H(ATOM    724  HA  ASP A  43)   13.26300000  *  10.72400000  *  19.25000000  *
   590       H(ATOM    725  HB2 ASP A  43)   11.79500000  *  12.53800000  *  19.51300000  *
   591       H(ATOM    726  HB3 ASP A  43)   13.05600000  *  12.65500000  *  20.40900000  *
   592       N(ATOM    727  N   TYR A  44)   13.66100000  *  11.16500000  *  16.29900000  *
   593       C(ATOM    728  CA  TYR A  44)   13.24400000  *  10.73400000  *  14.97200000  *
   594       C(ATOM    729  C   TYR A  44)   14.22000000  *   9.67100000  *  14.48500000  *
   595       O(ATOM    730  O   TYR A  44)   14.90500000  *   9.80100000  *  13.47100000  *
   596       C(ATOM    731  CB  TYR A  44)   13.12200000  *  11.87900000  *  13.95500000  *
   597       C(ATOM    732  CG  TYR A  44)   11.96400000  *  12.78500000  *  14.27300000  *
   598       C(ATOM    733  CD1 TYR A  44)   12.04800000  *  13.83800000  *  15.19800000  *
   599       C(ATOM    734  CD2 TYR A  44)   10.73500000  *  12.57400000  *  13.62600000  *
   600       C(ATOM    735  CE1 TYR A  44)   10.97200000  *  14.65400000  *  15.46500000  *
   601       C(ATOM    736  CE2 TYR A  44)    9.62600000  *  13.38300000  *  13.92200000  *
   602       C(ATOM    737  CZ  TYR A  44)    9.75600000  *  14.38900000  *  14.84100000  *
   603       O(ATOM    738  OH  TYR A  44)    8.68200000  *  15.21100000  *  15.10700000  *
   604       H(ATOM    739  H   TYR A  44)   14.56700000  *  11.23800000  *  16.45000000  *
   605       H(ATOM    740  HA  TYR A  44)   12.34800000  *  10.32800000  *  15.03300000  *
   606       H(ATOM    741  HB2 TYR A  44)   13.96800000  *  12.38900000  *  13.96900000  *
   607       H(ATOM    742  HB3 TYR A  44)   13.04000000  *  11.48500000  *  13.04700000  *
   608       H(ATOM    743  HD1 TYR A  44)   12.92700000  *  14.01000000  *  15.62600000  *
   609       H(ATOM    744  HD2 TYR A  44)   10.62400000  *  11.81500000  *  13.01100000  *
   610       H(ATOM    745  HE1 TYR A  44)   11.08000000  *  15.41400000  *  16.09400000  *
   611       H(ATOM    746  HE2 TYR A  44)    8.75800000  *  13.22100000  *  13.49300000  *
   612       H(ATOM    747  HH  TYR A  44)    8.35900000  *  15.02400000  *  15.91400000  *
   613       N(ATOM    748  N   ALA A  45)   14.31700000  *   8.60900000  *  15.30200000  *
   614       C(ATOM    749  CA  ALA A  45)   15.39300000  *   7.61800000  *  15.20000000  *
   615       C(ATOM    750  C   ALA A  45)   15.15700000  *   6.49800000  *  14.21800000  *
   616       O(ATOM    751  O   ALA A  45)   16.05500000  *   5.68200000  *  13.99200000  *
   617       C(ATOM    752  CB  ALA A  45)   15.60000000  *   7.01100000  *  16.59900000  *
   618       H(ATOM    753  H   ALA A  45)   13.86000000  *   8.58900000  *  16.09900000  *
   619       H(ATOM    754  HA  ALA A  45)   16.22800000  *   8.08700000  *  14.98400000  *
   620       H(ATOM    755  HB1 ALA A  45)   14.74500000  *   6.68200000  *  16.95000000  *
   621       H(ATOM    756  HB2 ALA A  45)   16.22500000  *   6.26100000  *  16.54600000  *
   622       H(ATOM    757  HB3 ALA A  45)   15.94700000  *   7.69700000  *  17.20100000  *
   623       N(ATOM    758  N   ASN A  46)   13.92500000  *   6.43500000  *  13.67000000  *
   624       C(ATOM    759  CA  ASN A  46)   13.50100000  *   5.32900000  *  12.79700000  *
   625       C(ATOM    760  C   ASN A  46)   13.28100000  *   5.77100000  *  11.34900000  *
   626       O(ATOM    761  O   ASN A  46)   13.69100000  *   6.90100000  *  11.00100000  *
   627       C(ATOM    762  CB  ASN A  46)   12.25200000  *   4.65100000  *  13.38600000  *
   628       C(ATOM    763  CG  ASN A  46)   12.52600000  *   4.13800000  *  14.76400000  *
   629       O(ATOM    764  OD1 ASN A  46)   13.44300000  *   3.21800000  *  14.92400000  *
   630       N(ATOM    765  ND2 ASN A  46)   11.91600000  *   4.60100000  *  15.74600000  *
   631       O(ATOM    766  OXT ASN A  46)   12.67800000  *   4.98000000  *  10.60000000  *
   632       H(ATOM    767  H   ASN A  46)   13.28800000  *   7.02500000  *  13.93100000  *
   633       H(ATOM    768  HA  ASN A  46)   14.19900000  *   4.63300000  *  12.82400000  *
   634       H(ATOM    769  HB2 ASN A  46)   11.52500000  *   5.31700000  *  13.41800000  *
   635       H(ATOM    770  HB3 ASN A  46)   11.96000000  *   3.92400000  *  12.79000000  *
   636       H(ATOM    771 HD21 ASN A  46)   12.05300000  *   4.33400000  *  16.64700000  *
   637       H(ATOM    772 HD22 ASN A  46)   11.31700000  *   5.32400000  *  15.66300000  *
   638       C(HETATM  774  C1  EOH A  66)   15.70200000  *   0.90400000  *  12.77100000  *
   639       C(HETATM  775  C2  EOH A  66)   14.82300000  *  -0.15900000  *  13.27100000  *
   640       O(HETATM  777  O   EOH A  66)   15.02900000  *   2.13400000  *  12.50100000  *


 General Reference for PM7:
 "Optimization of Parameters for Semiempirical Methods VI: More Modifications to the 
 NDDO Approximations and Re-optimization of Parameters", J. J. P. Stewart, J. Mol. Mod., 1:32, 19 (2013)
 https://link.springer.com/article/10.1007/s00894-012-1667-x

           Empirical Formula: C202 H311 N55 O66 S6  =   640 atoms

 GEOMETRY OF SYSTEM SUPPLIED
*HEADER    PLANT SEED PROTEIN                      11-OCT-91   1CBN
*TITLE     ATOMIC RESOLUTION (0.83 ANGSTROMS) CRYSTAL STRUCTURE OF THE
*TITLE    2 HYDROPHOBIC PROTEIN CRAMBIN AT 130 K
*COMPND    MOL_ID: 1;
*COMPND   2 MOLECULE: CRAMBIN;
*COMPND   3 CHAIN: A;
*COMPND   4 ENGINEERED: YES
*SOURCE    MOL_ID: 1;
*SOURCE   2 ORGANISM_SCIENTIFIC: CRAMBE HISPANICA SUBSP. ABYSSINICA;
*SOURCE   3 ORGANISM_TAXID: 3721;
*SOURCE   4 STRAIN: SUBSP. ABYSSINICA
*KEYWDS    PLANT SEED PROTEIN
*EXPDTA    X-RAY DIFFRACTION
*AUTHOR    M.M.TEETER,S.M.ROE,N.H.HEO
*REVDAT   5   05-FEB-14 1CBN    1       ATOM   CONECT
*REVDAT   4   13-JUL-11 1CBN    1       VERSN
*REVDAT   3   24-FEB-09 1CBN    1       VERSN
*REVDAT   2   01-APR-03 1CBN    1       JRNL
*REVDAT   1   31-JAN-94 1CBN    0
*JRNL        AUTH   M.M.TEETER,S.M.ROE,N.H.HEO
*JRNL        TITL   ATOMIC RESOLUTION (0.83 A) CRYSTAL STRUCTURE OF THE
*JRNL        TITL 2 HYDROPHOBIC PROTEIN CRAMBIN AT 130 K.
*JRNL        REF    J.MOL.BIOL.                   V. 230   292 1993
*JRNL        REFN                   ISSN 0022-2836
*JRNL        PMID   8450543
*JRNL        DOI    10.1006/JMBI.1993.1143
*REMARK   1
*REMARK   1 REFERENCE 1
*REMARK   1  AUTH   H.HOPE
*REMARK   1  TITL   CRYOCRYSTALLOGRAPHY OF BIOLOGICAL MACROMOLECULES: A
*REMARK   1  TITL 2 GENERALLY APPLICABLE METHOD
*REMARK   1  REF    ACTA CRYSTALLOGR.,SECT.B      V.  44    22 1988
*REMARK   1  REFN                   ISSN 0108-7681
*REMARK   1 REFERENCE 2
*REMARK   1  AUTH   M.WHITLOW,M.M.TEETER
*REMARK   1  TITL   AN EMPIRICAL EXAMINATION OF POTENTIAL ENERGY MINIMIZATION
*REMARK   1  TITL 2 USING THE WELL-DETERMINED STRUCTURE OF THE PROTEIN CRAMBIN
*REMARK   1  REF    J.AM.CHEM.SOC.                V. 108  7163 1986
*REMARK   1  REFN                   ISSN 0002-7863
*REMARK   1 REFERENCE 3
*REMARK   1  AUTH   M.M.TEETER,H.HOPE
*REMARK   1  TITL   PROGRESS IN THE WATER STRUCTURE OF THE PROTEIN CRAMBIN BY
*REMARK   1  TITL 2 X-RAY DIFFRACTION AT 140 K
*REMARK   1  REF    ANN.N.Y.ACAD.SCI.             V. 482   163 1986
*REMARK   1  REFN                   ISSN 0077-8923
*REMARK   1 REFERENCE 4
*REMARK   1  AUTH   M.M.TEETER
*REMARK   1  TITL   WATER STRUCTURE OF A HYDROPHOBIC PROTEIN AT ATOMIC
*REMARK   1  TITL 2 RESOLUTION. PENTAGON RINGS OF WATER MOLECULES IN CRYSTALS OF
*REMARK   1  TITL 3 CRAMBIN
*REMARK   1  REF    PROC.NATL.ACAD.SCI.USA        V.  81  6014 1984
*REMARK   1  REFN                   ISSN 0027-8424
*REMARK   1 REFERENCE 5
*REMARK   1  AUTH   W.A.HENDRICKSON,M.M.TEETER
*REMARK   1  TITL   STRUCTURE OF THE HYDROPHOBIC PROTEIN CRAMBIN DETERMINED
*REMARK   1  TITL 2 DIRECTLY FROM THE ANOMALOUS SCATTERING OF SULPHUR
*REMARK   1  REF    NATURE                        V. 290   107 1981
*REMARK   1  REFN                   ISSN 0028-0836
*REMARK   1 REFERENCE 6
*REMARK   1  AUTH   M.M.TEETER,W.A.HENDRICKSON
*REMARK   1  TITL   HIGHLY ORDERED CRYSTALS OF THE PLANT SEED PROTEIN CRAMBIN
*REMARK   1  REF    J.MOL.BIOL.                   V. 127   219 1979
*REMARK   1  REFN                   ISSN 0022-2836
*REMARK   2
*REMARK   2 RESOLUTION.    0.83 ANGSTROMS.
*REMARK   3
*REMARK   3 REFINEMENT.
*REMARK   3   PROGRAM     : PROLSQ
*REMARK   3   AUTHORS     : KONNERT,HENDRICKSON
*REMARK   3
*REMARK   3  DATA USED IN REFINEMENT.
*REMARK   3   RESOLUTION RANGE HIGH (ANGSTROMS) : 0.83
*REMARK   3   RESOLUTION RANGE LOW  (ANGSTROMS) : NULL
*REMARK   3   DATA CUTOFF            (SIGMA(F)) : NULL
*REMARK   3   COMPLETENESS FOR RANGE        (%) : NULL
*REMARK   3   NUMBER OF REFLECTIONS             : NULL
*REMARK   3
*REMARK   3  FIT TO DATA USED IN REFINEMENT.
*REMARK   3   CROSS-VALIDATION METHOD          : NULL
*REMARK   3   FREE R VALUE TEST SET SELECTION  : NULL
*REMARK   3   R VALUE     (WORKING + TEST SET) : 0.106
*REMARK   3   R VALUE            (WORKING SET) : NULL
*REMARK   3   FREE R VALUE                     : NULL
*REMARK   3   FREE R VALUE TEST SET SIZE   (%) : NULL
*REMARK   3   FREE R VALUE TEST SET COUNT      : NULL
*REMARK   3
*REMARK   3  FIT/AGREEMENT OF MODEL WITH ALL DATA.
*REMARK   3   R VALUE   (WORKING + TEST SET, NO CUTOFF) : NULL
*REMARK   3   R VALUE          (WORKING SET, NO CUTOFF) : NULL
*REMARK   3   FREE R VALUE                  (NO CUTOFF) : NULL
*REMARK   3   FREE R VALUE TEST SET SIZE (%, NO CUTOFF) : NULL
*REMARK   3   FREE R VALUE TEST SET COUNT   (NO CUTOFF) : NULL
*REMARK   3   TOTAL NUMBER OF REFLECTIONS   (NO CUTOFF) : NULL
*REMARK   3
*REMARK   3  NUMBER OF NON-HYDROGEN ATOMS USED IN REFINEMENT.
*REMARK   3   PROTEIN ATOMS            : 341
*REMARK   3   NUCLEIC ACID ATOMS       : 0
*REMARK   3   HETEROGEN ATOMS          : 3
*REMARK   3   SOLVENT ATOMS            : 0
*REMARK   3
*REMARK   3  B VALUES.
*REMARK   3   FROM WILSON PLOT           (A**2) : NULL
*REMARK   3   MEAN B VALUE      (OVERALL, A**2) : NULL
*REMARK   3   OVERALL ANISOTROPIC B VALUE.
*REMARK   3    B11 (A**2) : NULL
*REMARK   3    B22 (A**2) : NULL
*REMARK   3    B33 (A**2) : NULL
*REMARK   3    B12 (A**2) : NULL
*REMARK   3    B13 (A**2) : NULL
*REMARK   3    B23 (A**2) : NULL
*REMARK   3
*REMARK   3  ESTIMATED COORDINATE ERROR.
*REMARK   3   ESD FROM LUZZATI PLOT        (A) : NULL
*REMARK   3   ESD FROM SIGMAA              (A) : NULL
*REMARK   3   LOW RESOLUTION CUTOFF        (A) : NULL
*REMARK   3
*REMARK   3  RMS DEVIATIONS FROM IDEAL VALUES.
*REMARK   3   DISTANCE RESTRAINTS.                    RMS    SIGMA
*REMARK   3    BOND LENGTH                     (A) : 0.020 ; NULL
*REMARK   3    ANGLE DISTANCE                  (A) : NULL  ; NULL
*REMARK   3    INTRAPLANAR 1-4 DISTANCE        (A) : NULL  ; NULL
*REMARK   3    H-BOND OR METAL COORDINATION    (A) : NULL  ; NULL
*REMARK   3
*REMARK   3   PLANE RESTRAINT                  (A) : NULL  ; NULL
*REMARK   3   CHIRAL-CENTER RESTRAINT       (A**3) : NULL  ; NULL
*REMARK   3
*REMARK   3   NON-BONDED CONTACT RESTRAINTS.
*REMARK   3    SINGLE TORSION                  (A) : NULL  ; NULL
*REMARK   3    MULTIPLE TORSION                (A) : NULL  ; NULL
*REMARK   3    H-BOND (X...Y)                  (A) : NULL  ; NULL
*REMARK   3    H-BOND (X-H...Y)                (A) : NULL  ; NULL
*REMARK   3
*REMARK   3   CONFORMATIONAL TORSION ANGLE RESTRAINTS.
*REMARK   3    SPECIFIED                 (DEGREES) : NULL  ; NULL
*REMARK   3    PLANAR                    (DEGREES) : NULL  ; NULL
*REMARK   3    STAGGERED                 (DEGREES) : NULL  ; NULL
*REMARK   3    TRANSVERSE                (DEGREES) : NULL  ; NULL
*REMARK   3
*REMARK   3  ISOTROPIC THERMAL FACTOR RESTRAINTS.    RMS    SIGMA
*REMARK   3   MAIN-CHAIN BOND               (A**2) : NULL  ; NULL
*REMARK   3   MAIN-CHAIN ANGLE              (A**2) : NULL  ; NULL
*REMARK   3   SIDE-CHAIN BOND               (A**2) : NULL  ; NULL
*REMARK   3   SIDE-CHAIN ANGLE              (A**2) : NULL  ; NULL
*REMARK   3
*REMARK   3  OTHER REFINEMENT REMARKS: NULL
*REMARK   4
*REMARK   4 1CBN COMPLIES WITH FORMAT V. 3.30, 13-JUL-11
*REMARK 100
*REMARK 100 THIS ENTRY HAS BEEN PROCESSED BY BNL.
*REMARK 200
*REMARK 200 EXPERIMENTAL DETAILS
*REMARK 200  EXPERIMENT TYPE                : X-RAY DIFFRACTION
*REMARK 200  DATE OF DATA COLLECTION        : NULL
*REMARK 200  TEMPERATURE           (KELVIN) : NULL
*REMARK 200  PH                             : NULL
*REMARK 200  NUMBER OF CRYSTALS USED        : NULL
*REMARK 200
*REMARK 200  SYNCHROTRON              (Y/N) : NULL
*REMARK 200  RADIATION SOURCE               : NULL
*REMARK 200  BEAMLINE                       : NULL
*REMARK 200  X-RAY GENERATOR MODEL          : NULL
*REMARK 200  MONOCHROMATIC OR LAUE    (M/L) : NULL
*REMARK 200  WAVELENGTH OR RANGE        (A) : NULL
*REMARK 200  MONOCHROMATOR                  : NULL
*REMARK 200  OPTICS                         : NULL
*REMARK 200
*REMARK 200  DETECTOR TYPE                  : NULL
*REMARK 200  DETECTOR MANUFACTURER          : NULL
*REMARK 200  INTENSITY-INTEGRATION SOFTWARE : NULL
*REMARK 200  DATA SCALING SOFTWARE          : NULL
*REMARK 200
*REMARK 200  NUMBER OF UNIQUE REFLECTIONS   : NULL
*REMARK 200  RESOLUTION RANGE HIGH      (A) : NULL
*REMARK 200  RESOLUTION RANGE LOW       (A) : NULL
*REMARK 200  REJECTION CRITERIA  (SIGMA(I)) : NULL
*REMARK 200
*REMARK 200 OVERALL.
*REMARK 200  COMPLETENESS FOR RANGE     (%) : NULL
*REMARK 200  DATA REDUNDANCY                : NULL
*REMARK 200  R MERGE                    (I) : NULL
*REMARK 200  R SYM                      (I) : NULL
*REMARK 200  <I/SIGMA(I)> FOR THE DATA SET  : NULL
*REMARK 200
*REMARK 200 IN THE HIGHEST RESOLUTION SHELL.
*REMARK 200  HIGHEST RESOLUTION SHELL, RANGE HIGH (A) : NULL
*REMARK 200  HIGHEST RESOLUTION SHELL, RANGE LOW  (A) : NULL
*REMARK 200  COMPLETENESS FOR SHELL     (%) : NULL
*REMARK 200  DATA REDUNDANCY IN SHELL       : NULL
*REMARK 200  R MERGE FOR SHELL          (I) : NULL
*REMARK 200  R SYM FOR SHELL            (I) : NULL
*REMARK 200  <I/SIGMA(I)> FOR SHELL         : NULL
*REMARK 200
*REMARK 200 DIFFRACTION PROTOCOL: NULL
*REMARK 200 METHOD USED TO DETERMINE THE STRUCTURE: NULL
*REMARK 200 SOFTWARE USED: NULL
*REMARK 200 STARTING MODEL: NULL
*REMARK 200
*REMARK 200 REMARK: NULL
*REMARK 280
*REMARK 280 CRYSTAL
*REMARK 280 SOLVENT CONTENT, VS   (%): NULL
*REMARK 280 MATTHEWS COEFFICIENT, VM (ANGSTROMS**3/DA): NULL
*REMARK 280
*REMARK 280 CRYSTALLIZATION CONDITIONS: NULL
*REMARK 290
*REMARK 290 CRYSTALLOGRAPHIC SYMMETRY
*REMARK 290 SYMMETRY OPERATORS FOR SPACE GROUP: P 1 21 1
*REMARK 290
*REMARK 290      SYMOP   SYMMETRY
*REMARK 290     NNNMMM   OPERATOR
*REMARK 290       1555   X,Y,Z
*REMARK 290       2555   -X,Y+1/2,-Z
*REMARK 290
*REMARK 290     WHERE NNN -> OPERATOR NUMBER
*REMARK 290           MMM -> TRANSLATION VECTOR
*REMARK 290
*REMARK 290 CRYSTALLOGRAPHIC SYMMETRY TRANSFORMATIONS
*REMARK 290 THE FOLLOWING TRANSFORMATIONS OPERATE ON THE ATOM/HETATM
*REMARK 290 RECORDS IN THIS ENTRY TO PRODUCE CRYSTALLOGRAPHICALLY
*REMARK 290 RELATED MOLECULES.
*REMARK 290   SMTRY1   1  1.000000  0.000000  0.000000        0.00000
*REMARK 290   SMTRY2   1  0.000000  1.000000  0.000000        0.00000
*REMARK 290   SMTRY3   1  0.000000  0.000000  1.000000        0.00000
*REMARK 290   SMTRY1   2 -1.000000  0.000000  0.000000        0.00000
*REMARK 290   SMTRY2   2  0.000000  1.000000  0.000000        9.24600
*REMARK 290   SMTRY3   2  0.000000  0.000000 -1.000000        0.00000
*REMARK 290
*REMARK 290 REMARK: NULL
*REMARK 300
*REMARK 300 BIOMOLECULE: 1
*REMARK 300 SEE REMARK 350 FOR THE AUTHOR PROVIDED AND/OR PROGRAM
*REMARK 300 GENERATED ASSEMBLY INFORMATION FOR THE STRUCTURE IN
*REMARK 300 THIS ENTRY. THE REMARK MAY ALSO PROVIDE INFORMATION ON
*REMARK 300 BURIED SURFACE AREA.
*REMARK 350
*REMARK 350 COORDINATES FOR A COMPLETE MULTIMER REPRESENTING THE KNOWN
*REMARK 350 BIOLOGICALLY SIGNIFICANT OLIGOMERIZATION STATE OF THE
*REMARK 350 MOLECULE CAN BE GENERATED BY APPLYING BIOMT TRANSFORMATIONS
*REMARK 350 GIVEN BELOW.  BOTH NON-CRYSTALLOGRAPHIC AND
*REMARK 350 CRYSTALLOGRAPHIC OPERATIONS ARE GIVEN.
*REMARK 350
*REMARK 350 BIOMOLECULE: 1
*REMARK 350 AUTHOR DETERMINED BIOLOGICAL UNIT: MONOMERIC
*REMARK 350 APPLY THE FOLLOWING TO CHAINS: A
*REMARK 350   BIOMT1   1  1.000000  0.000000  0.000000        0.00000
*REMARK 350   BIOMT2   1  0.000000  1.000000  0.000000        0.00000
*REMARK 350   BIOMT3   1  0.000000  0.000000  1.000000        0.00000
*REMARK 500
*REMARK 500 GEOMETRY AND STEREOCHEMISTRY
*REMARK 500 SUBTOPIC: CHIRAL CENTERS
*REMARK 500
*REMARK 500 UNEXPECTED CONFIGURATION OF THE FOLLOWING CHIRAL
*REMARK 500 CENTER(S) USING IMPROPER CA--C--CB--N CHIRALITY
*REMARK 500 FOR AMINO ACIDS AND C1'--O4'--N1(N9)--C2' FOR
*REMARK 500 NUCLEIC ACIDS OR EQUIVALENT ANGLE
*REMARK 500 M=MODEL NUMBER; RES=RESIDUE NAME; C=CHAIN
*REMARK 500 IDENTIFIER; SSEQ=SEQUENCE NUMBER; I=INSERTION CODE
*REMARK 500
*REMARK 500 STANDARD TABLE:
*REMARK 500 FORMAT: (10X,I3,1X,A3,1X,A1,I4,A1,6X,F5.1,6X,A1,10X,A1,3X,A16)
*REMARK 500
*REMARK 500  M RES CSSEQI    IMPROPER   EXPECTED   FOUND DETAILS
*REMARK 500    VAL A   8        21.1      L          L   OUTSIDE RANGE
*REMARK 500
*REMARK 500 REMARK: NULL
*REMARK 700
*REMARK 700 SHEET
*REMARK 700 IN SHEET *S1*, STRAND 3 IS QUESTIONABLY A STRAND.
*REMARK 700 IN SHEET *S2*, STRAND 1 HAS NO HYDROGEN BONDS.  THE
*REMARK 700 BACKBONE ATOMS ARE IN BETA CONFORMATION.
*REMARK 800
*REMARK 800 SITE
*REMARK 800 SITE_IDENTIFIER: AC1
*REMARK 800 EVIDENCE_CODE: SOFTWARE
*REMARK 800 SITE_DESCRIPTION: BINDING SITE FOR RESIDUE EOH A 66
*DBREF  1CBN A    1    46  UNP    P01542   CRAM_CRAAB       1     46
*SEQRES   1 A   46  THR THR CYS CYS PRO SER ILE VAL ALA ARG SER ASN PHE
*SEQRES   2 A   46  ASN VAL CYS ARG LEU PRO GLY THR SER GLU ALA ILE CYS
*SEQRES   3 A   46  ALA THR TYR THR GLY CYS ILE ILE ILE PRO GLY ALA THR
*SEQRES   4 A   46  CYS PRO GLY ASP TYR ALA ASN
*HET    EOH  A  66       5
*HETNAM     EOH ETHANOL
*FORMUL   2  EOH    C2 H6 O
*HELIX    1  H1 ILE A    7  PRO A   19  13/10 CONFORMATION RESID 17-19     13
*HELIX    2  H2 GLU A   23  THR A   30  1ALPHA-N DISTORTION AT START        8
*SHEET    1  S1 3 CYS A  32  ILE A  35  0
*SHEET    2  S1 3 THR A   1  CYS A   4 -1
*SHEET    3  S1 3 ASN A  46  ASN A  46 -1
*SHEET    1  S2 1 THR A  39  PRO A  41  0
*CRYST1   40.763   18.492   22.333  90.00  90.61  90.00 P 1 21 1      2
*ORIGX1      1.000000  0.000000  0.000000        0.00000
*ORIGX2      0.000000  1.000000  0.000000        0.00000
*ORIGX3      0.000000  0.000000  1.000000        0.00000
*SCALE1      0.024532  0.000000  0.000261        0.00000
*SCALE2      0.000000  0.054077  0.000000        0.00000
*SCALE3      0.000000  0.000000  0.044779        0.00000
 ADD-H PDBOUT   CHAINS=(AA)  START_RES=(1A 66A)
 From PDB file: 'PDB1CBN'

  N(ATOM      1  N   THR A   1)  16.86400000 +1  14.05900000 +1   3.44200000 +1
  C(ATOM      3  CA  THR A   1)  16.86800000 +1  12.81400000 +1   4.23300000 +1
  C(ATOM      5  C   THR A   1)  15.58300000 +1  12.77500000 +1   4.99000000 +1
  O(ATOM      6  O   THR A   1)  15.11200000 +1  13.82400000 +1   5.43100000 +1
  C(ATOM      7  CB  THR A   1)  18.06000000 +1  12.80700000 +1   5.20000000 +1
  O(ATOM      9  OG1 THR A   1)  19.23300000 +1  12.89200000 +1   4.38000000 +1
  C(ATOM     11  CG2 THR A   1)  18.11700000 +1  11.57800000 +1   6.09200000 +1
  H(ATOM     13  H1  THR A   1)  16.00700000 +1  14.24100000 +1   3.09300000 +1
  H(ATOM     14  H2  THR A   1)  17.08700000 +1  14.80000000 +1   3.99700000 +1
  H(ATOM     15  H3  THR A   1)  17.48100000 +1  14.01300000 +1   2.75000000 +1
  H(ATOM     16  HA  THR A   1)  16.94000000 +1  12.04800000 +1   3.60500000 +1
  H(ATOM     17  HB  THR A   1)  18.00800000 +1  13.64100000 +1   5.76500000 +1
  H(ATOM     18  HG1 THR A   1)  19.76100000 +1  13.55300000 +1   4.64700000 +1
  H(ATOM     19 HG21 THR A   1)  17.94000000 +1  10.76800000 +1   5.54000000 +1
  H(ATOM     20 HG22 THR A   1)  18.98300000 +1  11.48800000 +1   6.53100000 +1
  H(ATOM     21 HG23 THR A   1)  17.39100000 +1  11.60400000 +1   6.79900000 +1
  N(ATOM     22  N   THR A   2)  15.05000000 +1  11.57400000 +1   5.15300000 +1
  C(ATOM     23  CA  THR A   2)  13.83200000 +1  11.48000000 +1   5.93600000 +1
  C(ATOM     24  C   THR A   2)  14.14000000 +1  10.77100000 +1   7.25900000 +1
  O(ATOM     25  O   THR A   2)  14.98100000 +1   9.84400000 +1   7.35200000 +1
  C(ATOM     26  CB  THR A   2)  12.70400000 +1  10.75800000 +1   5.17800000 +1
  O(ATOM     28  OG1 THR A   2)  13.21600000 +1   9.50400000 +1   4.84200000 +1
  C(ATOM     30  CG2 THR A   2)  12.26900000 +1  11.57300000 +1   3.95700000 +1
  H(ATOM     32  H   THR A   2)  15.43800000 +1  10.82000000 +1   4.85600000 +1
  H(ATOM     33  HA  THR A   2)  13.49100000 +1  12.37800000 +1   6.13400000 +1
  H(ATOM     34  HB  THR A   2)  11.91900000 +1  10.66800000 +1   5.81100000 +1
  H(ATOM     35  HG1 THR A   2)  13.26000000 +1   9.36300000 +1   3.96600000 +1
  H(ATOM     36 HG21 THR A   2)  11.95000000 +1  12.48500000 +1   4.22700000 +1
  H(ATOM     37 HG22 THR A   2)  13.05400000 +1  11.69200000 +1   3.36200000 +1
  H(ATOM     38 HG23 THR A   2)  11.56000000 +1  11.10700000 +1   3.47000000 +1
  N(ATOM     39  N   CYS A   3)  13.41500000 +1  11.19300000 +1   8.28100000 +1
  C(ATOM     40  CA  CYS A   3)  13.56400000 +1  10.66400000 +1   9.65300000 +1
  C(ATOM     41  C   CYS A   3)  12.17900000 +1  10.37300000 +1  10.19200000 +1
  O(ATOM     42  O   CYS A   3)  11.30300000 +1  11.24900000 +1   9.99900000 +1
  C(ATOM     43  CB  CYS A   3)  14.25300000 +1  11.70700000 +1  10.54700000 +1
  S(ATOM     44  SG  CYS A   3)  15.80400000 +1  12.39800000 +1   9.92100000 +1
  H(ATOM     45  H   CYS A   3)  12.84500000 +1  11.89900000 +1   8.20800000 +1
  H(ATOM     46  HA  CYS A   3)  14.11800000 +1   9.88700000 +1   9.65000000 +1
  H(ATOM     47  HB2 CYS A   3)  13.65100000 +1  12.47100000 +1  10.67000000 +1
  H(ATOM     48  HB3 CYS A   3)  14.44200000 +1  11.33100000 +1  11.42600000 +1
  N(ATOM     49  N   CYS A   4)  11.99800000 +1   9.28100000 +1  10.85800000 +1
  C(ATOM     50  CA  CYS A   4)  10.65700000 +1   8.92700000 +1  11.34100000 +1
  C(ATOM     51  C   CYS A   4)  10.64800000 +1   8.74900000 +1  12.84200000 +1
  O(ATOM     52  O   CYS A   4)  11.61500000 +1   8.25700000 +1  13.44000000 +1
  C(ATOM     53  CB  CYS A   4)  10.13700000 +1   7.67800000 +1  10.63400000 +1
  S(ATOM     54  SG  CYS A   4)   9.80400000 +1   7.92800000 +1   8.86500000 +1
  H(ATOM     55  H   CYS A   4)  12.65800000 +1   8.66000000 +1  10.95100000 +1
  H(ATOM     56  HA  CYS A   4)  10.03700000 +1   9.64200000 +1  11.09200000 +1
  H(ATOM     57  HB2 CYS A   4)  10.79000000 +1   6.96300000 +1  10.69200000 +1
  H(ATOM     58  HB3 CYS A   4)   9.30000000 +1   7.37300000 +1  11.03600000 +1
  N(ATOM     59  N   PRO A   5)   9.52900000 +1   9.07500000 +1  13.50600000 +1
  C(ATOM     60  CA  PRO A   5)   9.47400000 +1   9.02500000 +1  14.94200000 +1
  C(ATOM     61  C   PRO A   5)   9.33500000 +1   7.68000000 +1  15.54400000 +1
  O(ATOM     62  O   PRO A   5)   9.59900000 +1   7.51100000 +1  16.76100000 +1
  C(ATOM     63  CB  PRO A   5)   8.24700000 +1   9.90100000 +1  15.26600000 +1
  C(ATOM     64  CG  PRO A   5)   7.32200000 +1   9.73300000 +1  14.05500000 +1
  C(ATOM     65  CD  PRO A   5)   8.31600000 +1   9.74500000 +1  12.91200000 +1
  H(ATOM     66  HA  PRO A   5)  10.27200000 +1   9.41000000 +1  15.34300000 +1
  H(ATOM     67  HB2 PRO A   5)   7.82800000 +1   9.70500000 +1  16.02900000 +1
  H(ATOM     68  HB3 PRO A   5)   8.50800000 +1  10.81400000 +1  15.35800000 +1
  H(ATOM     69  HG2 PRO A   5)   6.93000000 +1   8.99300000 +1  14.10200000 +1
  H(ATOM     70  HG3 PRO A   5)   6.68100000 +1  10.45300000 +1  13.97700000 +1
  H(ATOM     71  HD2 PRO A   5)   7.99500000 +1   9.22500000 +1  12.14800000 +1
  H(ATOM     72  HD3 PRO A   5)   8.59200000 +1  10.61100000 +1  12.55500000 +1
  N(ATOM     73  N   SER A   6)   8.90300000 +1   6.70100000 +1  14.77200000 +1
  C(ATOM     74  CA  SER A   6)   8.70600000 +1   5.34100000 +1  15.23000000 +1
  C(ATOM     75  C   SER A   6)   8.79100000 +1   4.42200000 +1  14.00900000 +1
  O(ATOM     76  O   SER A   6)   8.72200000 +1   4.87600000 +1  12.86700000 +1
  C(ATOM     77  CB  SER A   6)   7.37600000 +1   5.15100000 +1  15.94700000 +1
[...]
  H(ATOM    526  H   TYR A  29)   2.11400000 +1  13.14800000 +1   5.71300000 +1
  H(ATOM    527  HA  TYR A  29)  -0.22900000 +1  12.33000000 +1   6.82400000 +1
  H(ATOM    528  HB2 TYR A  29)  -0.01700000 +1  11.80800000 +1   4.73200000 +1
  H(ATOM    530  HB3 TYR A  29)   1.46900000 +1  11.26200000 +1   4.87700000 +1
  H(ATOM    532  HD1 TYR A  29)  -1.93600000 +1  10.29500000 +1   5.75400000 +1
  H(ATOM    534  HD2 TYR A  29)   1.80000000 +1   8.91200000 +1   4.70900000 +1
  H(ATOM    536  HE1 TYR A  29)  -2.76100000 +1   8.08000000 +1   5.75200000 +1
  H(ATOM    538  HE2 TYR A  29)   0.97600000 +1   6.67600000 +1   4.71000000 +1
  N(ATOM    540  N   THR A  30)   2.41200000 +1  10.87000000 +1   7.98600000 +1
  C(ATOM    541  CA  THR A  30)   2.91000000 +1   9.89100000 +1   8.93400000 +1
  C(ATOM    542  C   THR A  30)   3.53000000 +1  10.40600000 +1  10.22900000 +1
  O(ATOM    543  O   THR A  30)   3.69000000 +1   9.60300000 +1  11.12800000 +1
  C(ATOM    544  CB  THR A  30)   4.02200000 +1   9.02500000 +1   8.26100000 +1
  O(ATOM    545  OG1 THR A  30)   5.07600000 +1   9.88600000 +1   7.85800000 +1
  C(ATOM    546  CG2 THR A  30)   3.49200000 +1   8.23800000 +1   7.07800000 +1
  H(ATOM    547  H   THR A  30)   2.98100000 +1  11.28500000 +1   7.42600000 +1
  H(ATOM    548  HA  THR A  30)   2.20700000 +1   9.24300000 +1   9.15300000 +1
  H(ATOM    549  HB  THR A  30)   4.35700000 +1   8.39300000 +1   8.97400000 +1
  H(ATOM    550  HG1 THR A  30)   5.14000000 +1   9.93600000 +1   6.97200000 +1
  H(ATOM    551 HG21 THR A  30)   2.67700000 +1   7.69800000 +1   7.34400000 +1
  H(ATOM    552 HG22 THR A  30)   3.22200000 +1   8.85100000 +1   6.35700000 +1
  H(ATOM    553 HG23 THR A  30)   4.17500000 +1   7.61200000 +1   6.73700000 +1
  N(ATOM    554  N   GLY A  31)   3.89700000 +1  11.67000000 +1  10.23100000 +1
  C(ATOM    555  CA  GLY A  31)   4.71800000 +1  12.22100000 +1  11.31600000 +1
  C(ATOM    556  C   GLY A  31)   6.22100000 +1  12.14300000 +1  11.06100000 +1
  O(ATOM    557  O   GLY A  31)   6.98500000 +1  12.68000000 +1  11.88900000 +1
  H(ATOM    558  H   GLY A  31)   3.82200000 +1  12.19000000 +1   9.48000000 +1
  H(ATOM    559  HA2 GLY A  31)   4.47200000 +1  13.15900000 +1  11.45500000 +1
  H(ATOM    560  HA3 GLY A  31)   4.48500000 +1  11.74900000 +1  12.17000000 +1
  N(ATOM    561  N   CYS A  32)   6.64600000 +1  11.50900000 +1   9.97100000 +1
  C(ATOM    562  CA  CYS A  32)   8.05000000 +1  11.58900000 +1   9.56000000 +1
  C(ATOM    563  C   CYS A  32)   8.35200000 +1  13.00800000 +1   9.14800000 +1
  O(ATOM    564  O   CYS A  32)   7.46100000 +1  13.87500000 +1   8.94600000 +1
  C(ATOM    565  CB  CYS A  32)   8.36100000 +1  10.61800000 +1   8.45300000 +1
  S(ATOM    566  SG  CYS A  32)   7.98700000 +1   8.85900000 +1   8.83600000 +1
  H(ATOM    567  H   CYS A  32)   6.03500000 +1  11.19700000 +1   9.37700000 +1
  H(ATOM    568  HA  CYS A  32)   8.61800000 +1  11.32900000 +1  10.31800000 +1
  H(ATOM    569  HB2 CYS A  32)   7.81600000 +1  10.81200000 +1   7.66100000 +1
  H(ATOM    570  HB3 CYS A  32)   9.29400000 +1  10.62800000 +1   8.18600000 +1
  N(ATOM    571  N   ILE A  33)   9.65400000 +1  13.31400000 +1   8.96900000 +1
  C(ATOM    572  CA  ILE A  33)  10.15100000 +1  14.63400000 +1   8.67100000 +1
  C(ATOM    573  C   ILE A  33)  11.20300000 +1  14.52100000 +1   7.57800000 +1
  O(ATOM    574  O   ILE A  33)  11.84100000 +1  13.47100000 +1   7.38000000 +1
  C(ATOM    575  CB  ILE A  33)  10.73600000 +1  15.34800000 +1   9.92400000 +1
  C(ATOM    576  CG1 ILE A  33)  11.97900000 +1  14.63700000 +1  10.47700000 +1
  C(ATOM    577  CG2 ILE A  33)   9.64900000 +1  15.46300000 +1  10.97100000 +1
  C(ATOM    578  CD1 ILE A  33)  12.66000000 +1  15.41800000 +1  11.58200000 +1
  H(ATOM    579  H   ILE A  33)  10.28100000 +1  12.65300000 +1   9.09500000 +1
  H(ATOM    580  HA  ILE A  33)   9.42800000 +1  15.22300000 +1   8.37100000 +1
  H(ATOM    581  HB  ILE A  33)  10.99100000 +1  16.24600000 +1   9.61400000 +1
  H(ATOM    582 HG12 ILE A  33)  11.66900000 +1  13.77000000 +1  10.83000000 +1
  H(ATOM    583 HG13 ILE A  33)  12.61700000 +1  14.50200000 +1   9.73900000 +1
  H(ATOM    584 HG21 ILE A  33)   9.21200000 +1  14.58400000 +1  11.11100000 +1
  H(ATOM    585 HG22 ILE A  33)  10.05400000 +1  15.78800000 +1  11.81900000 +1
  H(ATOM    586 HG23 ILE A  33)   8.96600000 +1  16.12400000 +1  10.67500000 +1
  H(ATOM    587 HD11 ILE A  33)  12.76400000 +1  16.36100000 +1  11.26700000 +1
  H(ATOM    588 HD12 ILE A  33)  12.11700000 +1  15.39300000 +1  12.42200000 +1
  H(ATOM    589 HD13 ILE A  33)  13.56800000 +1  15.03100000 +1  11.72400000 +1
  N(ATOM    590  N   ILE A  34)  11.42500000 +1  15.63800000 +1   6.91000000 +1
  C(ATOM    591  CA  ILE A  34)  12.46300000 +1  15.80300000 +1   5.90000000 +1
  C(ATOM    592  C   ILE A  34)  13.47100000 +1  16.80000000 +1   6.49200000 +1
  O(ATOM    593  O   ILE A  34)  13.05200000 +1  17.90200000 +1   6.90900000 +1
  C(ATOM    594  CB  ILE A  34)  11.95600000 +1  16.34300000 +1   4.56000000 +1
  C(ATOM    595  CG1 ILE A  34)  10.85800000 +1  15.44700000 +1   4.00300000 +1
  C(ATOM    596  CG2 ILE A  34)  13.11700000 +1  16.47600000 +1   3.58000000 +1
  C(ATOM    597  CD1 ILE A  34)  10.20700000 +1  16.14000000 +1   2.79800000 +1
  H(ATOM    599  H   ILE A  34)  10.99600000 +1  16.42400000 +1   7.14200000 +1
  H(ATOM    600  HA  ILE A  34)  12.91500000 +1  14.96000000 +1   5.73100000 +1
  H(ATOM    601  HB  ILE A  34)  11.59700000 +1  17.24600000 +1   4.73400000 +1
  H(ATOM    602 HG12 ILE A  34)  11.27800000 +1  14.61500000 +1   3.69300000 +1
  H(ATOM    603 HG13 ILE A  34)  10.17200000 +1  15.28300000 +1   4.67300000 +1
  H(ATOM    604 HG21 ILE A  34)  12.82700000 +1  17.05300000 +1   2.82700000 +1
  H(ATOM    605 HG22 ILE A  34)  13.37200000 +1  15.57400000 +1   3.26000000 +1
  H(ATOM    606 HG23 ILE A  34)  13.88000000 +1  16.90300000 +1   4.04300000 +1
  H(ATOM    607 HD11 ILE A  34)  10.89600000 +1  16.29700000 +1   2.09000000 +1
  H(ATOM    609 HD12 ILE A  34)   9.48100000 +1  15.54300000 +1   2.47500000 +1
  H(ATOM    611 HD13 ILE A  34)   9.82000000 +1  16.99300000 +1   3.11900000 +1
  N(ATOM    613  N   ILE A  35)  14.76700000 +1  16.44500000 +1   6.43700000 +1
  C(ATOM    614  CA  ILE A  35)  15.80100000 +1  17.36200000 +1   6.84500000 +1
  C(ATOM    615  C   ILE A  35)  16.81000000 +1  17.52900000 +1   5.72000000 +1
  O(ATOM    616  O   ILE A  35)  16.97300000 +1  16.61900000 +1   4.91700000 +1
  C(ATOM    617  CB  ILE A  35)  16.53100000 +1  16.88200000 +1   8.15700000 +1
  C(ATOM    618  CG1 ILE A  35)  17.20400000 +1  15.53800000 +1   7.95900000 +1
  C(ATOM    619  CG2 ILE A  35)  15.53700000 +1  16.88900000 +1   9.31600000 +1
  C(ATOM    620  CD1 ILE A  35)  18.11400000 +1  15.14600000 +1   9.12900000 +1
  H(ATOM    621  H   ILE A  35)  14.99100000 +1  15.66500000 +1   6.03500000 +1
  H(ATOM    622  HA  ILE A  35)  15.43600000 +1  18.23600000 +1   7.08200000 +1
  H(ATOM    623  HB  ILE A  35)  17.20500000 +1  17.58100000 +1   8.31600000 +1
  H(ATOM    624 HG12 ILE A  35)  16.49200000 +1  14.85600000 +1   7.89300000 +1
  H(ATOM    625 HG13 ILE A  35)  17.75000000 +1  15.54200000 +1   7.14500000 +1
  H(ATOM    626 HG21 ILE A  35)  15.15100000 +1  17.78800000 +1   9.41500000 +1
  H(ATOM    627 HG22 ILE A  35)  14.82500000 +1  16.22200000 +1   9.13400000 +1
  H(ATOM    628 HG23 ILE A  35)  16.02900000 +1  16.64300000 +1  10.14500000 +1
  H(ATOM    629 HD11 ILE A  35)  17.57500000 +1  15.09700000 +1   9.96900000 +1
  H(ATOM    630 HD12 ILE A  35)  18.53500000 +1  14.27500000 +1   8.90300000 +1
  H(ATOM    631 HD13 ILE A  35)  18.82000000 +1  15.84100000 +1   9.19400000 +1
  N(ATOM    632  N   PRO A  36)  17.54300000 +1  18.64300000 +1   5.68100000 +1
  C(ATOM    633  CA  PRO A  36)  18.54000000 +1  18.82900000 +1   4.63300000 +1
  C(ATOM    634  C   PRO A  36)  19.81800000 +1  18.04000000 +1   4.84600000 +1
  O(ATOM    635  O   PRO A  36)  20.54400000 +1  17.78900000 +1   3.88000000 +1
  C(ATOM    636  CB  PRO A  36)  18.74500000 +1  20.33700000 +1   4.62400000 +1
  C(ATOM    637  CG  PRO A  36)  18.29700000 +1  20.86700000 +1   5.94500000 +1
  C(ATOM    638  CD  PRO A  36)  17.24300000 +1  19.87000000 +1   6.44900000 +1
  H(ATOM    639  HA  PRO A  36)  18.21000000 +1  18.49900000 +1   3.78400000 +1
  H(ATOM    640  HB2 PRO A  36)  19.59200000 +1  20.60000000 +1   4.40900000 +1
  H(ATOM    641  HB3 PRO A  36)  18.24000000 +1  20.73500000 +1   3.89200000 +1
  H(ATOM    642  HG2 PRO A  36)  18.92700000 +1  20.89300000 +1   6.50300000 +1
  H(ATOM    643  HG3 PRO A  36)  17.88200000 +1  21.75700000 +1   5.89700000 +1
  H(ATOM    644  HD2 PRO A  36)  17.34700000 +1  19.74000000 +1   7.41200000 +1
  H(ATOM    645  HD3 PRO A  36)  16.31000000 +1  20.12900000 +1   6.31400000 +1
  N(ATOM    646  N   GLY A  37)  20.08800000 +1  17.75800000 +1   6.09800000 +1
  C(ATOM    647  CA  GLY A  37)  21.28900000 +1  16.99200000 +1   6.48700000 +1
  C(ATOM    648  C   GLY A  37)  21.01600000 +1  15.52100000 +1   6.38500000 +1
  O(ATOM    649  O   GLY A  37)  20.00600000 +1  15.06900000 +1   5.80700000 +1
  H(ATOM    650  H   GLY A  37)  19.56100000 +1  18.02000000 +1   6.79200000 +1
  H(ATOM    651  HA2 GLY A  37)  22.02600000 +1  17.25200000 +1   5.90100000 +1
  H(ATOM    652  HA3 GLY A  37)  21.55100000 +1  17.26900000 +1   7.41200000 +1
  N(ATOM    653  N   ALA A  38)  21.91800000 +1  14.71400000 +1   6.93700000 +1
  C(ATOM    654  CA  ALA A  38)  21.88000000 +1  13.27800000 +1   6.87700000 +1
  C(ATOM    655  C   ALA A  38)  21.76300000 +1  12.58200000 +1   8.24900000 +1
  O(ATOM    656  O   ALA A  38)  21.70100000 +1  11.34700000 +1   8.32500000 +1
  C(ATOM    657  CB  ALA A  38)  23.12300000 +1  12.72500000 +1   6.15600000 +1
  H(ATOM    658  H   ALA A  38)  22.66600000 +1  15.08200000 +1   7.35000000 +1
  H(ATOM    659  HA  ALA A  38)  21.11700000 +1  12.97700000 +1   6.33300000 +1
  H(ATOM    660  HB1 ALA A  38)  23.93100000 +1  13.03100000 +1   6.61600000 +1
  H(ATOM    661  HB2 ALA A  38)  23.10100000 +1  11.74600000 +1   6.16600000 +1
  H(ATOM    662  HB3 ALA A  38)  23.14100000 +1  13.04600000 +1   5.23300000 +1
  N(ATOM    663  N   THR A  39)  21.71700000 +1  13.40100000 +1   9.29600000 +1
  C(ATOM    664  CA  THR A  39)  21.78400000 +1  12.87400000 +1  10.64400000 +1
  C(ATOM    665  C   THR A  39)  20.48700000 +1  13.10700000 +1  11.37100000 +1
  O(ATOM    666  O   THR A  39)  20.19900000 +1  14.23600000 +1  11.81500000 +1
  C(ATOM    667  CB  THR A  39)  22.95500000 +1  13.57200000 +1  11.49100000 +1
  O(ATOM    669  OG1 THR A  39)  24.15200000 +1  13.56900000 +1  10.77400000 +1
  C(ATOM    671  CG2 THR A  39)  23.19900000 +1  12.88700000 +1  12.82500000 +1
  H(ATOM    673  H   THR A  39)  21.81700000 +1  14.30200000 +1   9.18900000 +1
  H(ATOM    674  HA  THR A  39)  22.04200000 +1  11.94500000 +1  10.64800000 +1
  H(ATOM    675  HB  THR A  39)  22.62300000 +1  14.51000000 +1  11.63600000 +1
  H(ATOM    676  HG1 THR A  39)  24.27200000 +1  12.87800000 +1  10.24000000 +1
  H(ATOM    677 HG21 THR A  39)  23.41900000 +1  11.92700000 +1  12.65600000 +1
  H(ATOM    678 HG22 THR A  39)  23.93000000 +1  13.30200000 +1  13.31700000 +1
  H(ATOM    679 HG23 THR A  39)  22.36700000 +1  12.88700000 +1  13.39700000 +1
  N(ATOM    680  N   CYS A  40)  19.71700000 +1  12.03500000 +1  11.53600000 +1
  C(ATOM    681  CA  CYS A  40)  18.42300000 +1  12.14700000 +1  12.21500000 +1
  C(ATOM    682  C   CYS A  40)  18.63100000 +1  12.25600000 +1  13.71000000 +1
  O(ATOM    683  O   CYS A  40)  19.46700000 +1  11.51100000 +1  14.26600000 +1
  C(ATOM    684  CB  CYS A  40)  17.55800000 +1  10.93700000 +1  11.86200000 +1
  S(ATOM    685  SG  CYS A  40)  17.10000000 +1  10.84800000 +1  10.11000000 +1
  H(ATOM    686  H   CYS A  40)  19.94600000 +1  11.23000000 +1  11.19700000 +1
  H(ATOM    687  HA  CYS A  40)  17.94000000 +1  12.92500000 +1  11.88900000 +1
  H(ATOM    688  HB2 CYS A  40)  18.02800000 +1  10.11300000 +1  12.07200000 +1
  H(ATOM    689  HB3 CYS A  40)  16.72200000 +1  10.95400000 +1  12.37300000 +1
  N(ATOM    690  N   PRO A  41)  17.80900000 +1  13.04100000 +1  14.39600000 +1
  C(ATOM    691  CA  PRO A  41)  17.90500000 +1  13.20500000 +1  15.84700000 +1
  C(ATOM    692  C   PRO A  41)  17.32400000 +1  12.02600000 +1  16.56700000 +1
  O(ATOM    693  O   PRO A  41)  16.59500000 +1  11.18900000 +1  15.99100000 +1
  C(ATOM    694  CB  PRO A  41)  17.19100000 +1  14.51400000 +1  16.10800000 +1
  C(ATOM    695  CG  PRO A  41)  16.05000000 +1  14.45900000 +1  15.05100000 +1
  C(ATOM    696  CD  PRO A  41)  16.77000000 +1  13.95400000 +1  13.80500000 +1
  H(ATOM    697  HA  PRO A  41)  18.84000000 +1  13.24000000 +1  16.11600000 +1
  H(ATOM    698  HB2 PRO A  41)  16.85000000 +1  14.66800000 +1  16.90700000 +1
  H(ATOM    699  HB3 PRO A  41)  17.73900000 +1  15.27400000 +1  15.91500000 +1
  H(ATOM    700  HG2 PRO A  41)  15.48100000 +1  13.91300000 +1  15.31200000 +1
  H(ATOM    701  HG3 PRO A  41)  15.67600000 +1  15.33500000 +1  14.90100000 +1
  H(ATOM    702  HD2 PRO A  41)  16.17000000 +1  13.46800000 +1  13.21800000 +1
  H(ATOM    703  HD3 PRO A  41)  17.22000000 +1  14.62400000 +1  13.25600000 +1
  N(ATOM    704  N   GLY A  42)  17.60400000 +1  11.96500000 +1  17.89600000 +1
  C(ATOM    705  CA  GLY A  42)  17.20400000 +1  10.80800000 +1  18.70100000 +1
  C(ATOM    706  C   GLY A  42)  15.70900000 +1  10.57000000 +1  18.86200000 +1
  O(ATOM    707  O   GLY A  42)  15.28000000 +1   9.47600000 +1  19.23800000 +1
  H(ATOM    708  H   GLY A  42)  18.13400000 +1  12.58000000 +1  18.27500000 +1
  H(ATOM    709  HA2 GLY A  42)  17.59900000 +1   9.99700000 +1  18.28800000 +1
  H(ATOM    710  HA3 GLY A  42)  17.64000000 +1  10.87500000 +1  19.60200000 +1
  N(ATOM    711  N   ASP A  43)  14.92500000 +1  11.67700000 +1  18.64500000 +1
  C(ATOM    712  CA  ASP A  43)  13.46900000 +1  11.53600000 +1  18.72800000 +1
  C(ATOM    713  C   ASP A  43)  12.82900000 +1  11.27300000 +1  17.30800000 +1
  O(ATOM    714  O   ASP A  43)  11.60800000 +1  11.11800000 +1  17.27000000 +1
  C(ATOM    715  CB  ASP A  43)  12.77600000 +1  12.65300000 +1  19.45600000 +1
  C(ATOM    717  CG  ASP A  43)  13.08300000 +1  14.01300000 +1  18.90000000 +1
  O(ATOM    719  OD1 ASP A  43)  14.05200000 +1  14.18000000 +1  18.16500000 +1
  O(ATOM    721  OD2 ASP A  43)  12.24400000 +1  14.90200000 +1  19.23900000 +1
  H(ATOM    723  H   ASP A  43)  15.28900000 +1  12.43500000 +1  18.38000000 +1
  H(ATOM    724  HA  ASP A  43)  13.26300000 +1  10.72400000 +1  19.25000000 +1
  H(ATOM    725  HB2 ASP A  43)  11.79500000 +1  12.53800000 +1  19.51300000 +1
  H(ATOM    726  HB3 ASP A  43)  13.05600000 +1  12.65500000 +1  20.40900000 +1
  N(ATOM    727  N   TYR A  44)  13.66100000 +1  11.16500000 +1  16.29900000 +1
  C(ATOM    728  CA  TYR A  44)  13.24400000 +1  10.73400000 +1  14.97200000 +1
  C(ATOM    729  C   TYR A  44)  14.22000000 +1   9.67100000 +1  14.48500000 +1
  O(ATOM    730  O   TYR A  44)  14.90500000 +1   9.80100000 +1  13.47100000 +1
  C(ATOM    731  CB  TYR A  44)  13.12200000 +1  11.87900000 +1  13.95500000 +1
  C(ATOM    732  CG  TYR A  44)  11.96400000 +1  12.78500000 +1  14.27300000 +1
  C(ATOM    733  CD1 TYR A  44)  12.04800000 +1  13.83800000 +1  15.19800000 +1
  C(ATOM    734  CD2 TYR A  44)  10.73500000 +1  12.57400000 +1  13.62600000 +1
  C(ATOM    735  CE1 TYR A  44)  10.97200000 +1  14.65400000 +1  15.46500000 +1
  C(ATOM    736  CE2 TYR A  44)   9.62600000 +1  13.38300000 +1  13.92200000 +1
  C(ATOM    737  CZ  TYR A  44)   9.75600000 +1  14.38900000 +1  14.84100000 +1
  O(ATOM    738  OH  TYR A  44)   8.68200000 +1  15.21100000 +1  15.10700000 +1
  H(ATOM    739  H   TYR A  44)  14.56700000 +1  11.23800000 +1  16.45000000 +1
  H(ATOM    740  HA  TYR A  44)  12.34800000 +1  10.32800000 +1  15.03300000 +1
  H(ATOM    741  HB2 TYR A  44)  13.96800000 +1  12.38900000 +1  13.96900000 +1
  H(ATOM    742  HB3 TYR A  44)  13.04000000 +1  11.48500000 +1  13.04700000 +1
  H(ATOM    743  HD1 TYR A  44)  12.92700000 +1  14.01000000 +1  15.62600000 +1
  H(ATOM    744  HD2 TYR A  44)  10.62400000 +1  11.81500000 +1  13.01100000 +1
  H(ATOM    745  HE1 TYR A  44)  11.08000000 +1  15.41400000 +1  16.09400000 +1
  H(ATOM    746  HE2 TYR A  44)   8.75800000 +1  13.22100000 +1  13.49300000 +1
  H(ATOM    747  HH  TYR A  44)   8.35900000 +1  15.02400000 +1  15.91400000 +1
  N(ATOM    748  N   ALA A  45)  14.31700000 +1   8.60900000 +1  15.30200000 +1
  C(ATOM    749  CA  ALA A  45)  15.39300000 +1   7.61800000 +1  15.20000000 +1
  C(ATOM    750  C   ALA A  45)  15.15700000 +1   6.49800000 +1  14.21800000 +1
  O(ATOM    751  O   ALA A  45)  16.05500000 +1   5.68200000 +1  13.99200000 +1
  C(ATOM    752  CB  ALA A  45)  15.60000000 +1   7.01100000 +1  16.59900000 +1
  H(ATOM    753  H   ALA A  45)  13.86000000 +1   8.58900000 +1  16.09900000 +1
  H(ATOM    754  HA  ALA A  45)  16.22800000 +1   8.08700000 +1  14.98400000 +1
  H(ATOM    755  HB1 ALA A  45)  14.74500000 +1   6.68200000 +1  16.95000000 +1
  H(ATOM    756  HB2 ALA A  45)  16.22500000 +1   6.26100000 +1  16.54600000 +1
  H(ATOM    757  HB3 ALA A  45)  15.94700000 +1   7.69700000 +1  17.20100000 +1
  N(ATOM    758  N   ASN A  46)  13.92500000 +1   6.43500000 +1  13.67000000 +1
  C(ATOM    759  CA  ASN A  46)  13.50100000 +1   5.32900000 +1  12.79700000 +1
  C(ATOM    760  C   ASN A  46)  13.28100000 +1   5.77100000 +1  11.34900000 +1
  O(ATOM    761  O   ASN A  46)  13.69100000 +1   6.90100000 +1  11.00100000 +1
  C(ATOM    762  CB  ASN A  46)  12.25200000 +1   4.65100000 +1  13.38600000 +1
  C(ATOM    763  CG  ASN A  46)  12.52600000 +1   4.13800000 +1  14.76400000 +1
  O(ATOM    764  OD1 ASN A  46)  13.44300000 +1   3.21800000 +1  14.92400000 +1
  N(ATOM    765  ND2 ASN A  46)  11.91600000 +1   4.60100000 +1  15.74600000 +1
  O(ATOM    766  OXT ASN A  46)  12.67800000 +1   4.98000000 +1  10.60000000 +1
  H(ATOM    767  H   ASN A  46)  13.28800000 +1   7.02500000 +1  13.93100000 +1
  H(ATOM    768  HA  ASN A  46)  14.19900000 +1   4.63300000 +1  12.82400000 +1
  H(ATOM    769  HB2 ASN A  46)  11.52500000 +1   5.31700000 +1  13.41800000 +1
  H(ATOM    770  HB3 ASN A  46)  11.96000000 +1   3.92400000 +1  12.79000000 +1
  H(ATOM    771 HD21 ASN A  46)  12.05300000 +1   4.33400000 +1  16.64700000 +1
  H(ATOM    772 HD22 ASN A  46)  11.31700000 +1   5.32400000 +1  15.66300000 +1
  C(HETATM  774  C1  EOH A  66)  15.70200000 +1   0.90400000 +1  12.77100000 +1
  C(HETATM  775  C2  EOH A  66)  14.82300000 +1  -0.15900000 +1  13.27100000 +1
  O(HETATM  777  O   EOH A  66)  15.02900000 +1   2.13400000 +1  12.50100000 +1


                RESIDUE SEQUENCE IN PROTEIN Chain: A

             1     2     3     4     5     6     7     8     9    10
        0   THR   THR   CYS   CYS   PRO   SER   ILE   VAL   ALA   ARG   
       10   SER   ASN   PHE   ASN   VAL   CYS   ARG   LEU   PRO   GLY   
       20   THR   SER   GLU   ALA   ILE   CYS   ALA   THR   TYR   THR   
       30   GLY   CYS   ILE   ILE   ILE   PRO   GLY   ALA   THR   CYS   
       40   PRO   GLY   ASP   TYR   ALA   ASN   

                RESIDUE SEQUENCE IN PROTEIN Chain: A

        0  TTCCPSIVAR SNFNVCRLPG TSEAICATYT GCIIIPGATC PGDYAN

          ADD-H: SYSTEM HAS BEEN HYDROGENATED

 ******************************************************************************
 *                                                                            *
 *     Error and normal termination messages reported in this calculation     *
 *                                                                            *
 * ADD-H: SYSTEM HAS BEEN HYDROGENATED                                        *
 * JOB ENDED NORMALLY                                                         *
 *                                                                            *
 ******************************************************************************



 TOTAL JOB TIME:             0.09 SECONDS

 == MOPAC DONE ==
