 *******************************************************************************
 ** Site#:    0         For non-commercial use only    Version 20.173L 64BITS **
 *******************************************************************************
 ** Cite this program as: MOPAC2016, Version: 20.173L, James J. P. Stewart,   **
 ** Stewart Computational Chemistry, web-site: HTTP://OpenMOPAC.net.          **
 *******************************************************************************
 **                                                                           **
 **                                MOPAC2016                                  **
 **                                                                           **
 *******************************************************************************

                              INDO CALCULATION RESULTS

 *******************************************************************************
 *  CALCULATION DONE:                                Mon Jun 29 13:00:49 2020  *
 *  INDO       - The INDO Hamiltonian to be used
 *  CIS        - C.I. USES 1 ELECTRON EXCITATIONS ONLY
 *
 *
 *
 *                 CHARGE ON SYSTEM = 0
 *
 *
 *
 *  T=         - A TIME OF 172800.0 SECONDS REQUESTED
 *  DUMP=N     - RESTART FILE WRITTEN EVERY 7200.0 SECONDS REQUESTED
 *******************************************************************************
INDO CIS CHARGE=0


   ATOM   CHEMICAL          X               Y               Z
  NUMBER   SYMBOL      (ANGSTROMS)     (ANGSTROMS)     (ANGSTROMS)
 
     1       C          0.13642800  *   4.31261200  *   0.00000000  *
     2       C          0.65084500  *   3.07095700  *   0.00000000  *
     3       C         -0.13642800  *   1.85596900  *   0.00000000  *
     4       C          0.38926300  *   0.60631000  *   0.00000000  *
     5       C         -0.38926300  *  -0.60631000  *   0.00000000  *
     6       C          0.13642800  *  -1.85596900  *   0.00000000  *
     7       C         -0.65084500  *  -3.07095700  *   0.00000000  *
     8       C         -0.13642800  *  -4.31261200  *   0.00000000  *
     9       H          0.77042500  *   5.19381900  *   0.00000000  *
    10       H         -0.93776100  *   4.48341300  *   0.00000000  *
    11       H          1.73423700  *   2.94537900  *   0.00000000  *
    12       H         -1.22106200  *   1.97279000  *   0.00000000  *
    13       H          1.47457700  *   0.49428800  *   0.00000000  *
    14       H         -1.47457700  *  -0.49428800  *   0.00000000  *
    15       H          1.22106200  *  -1.97279000  *   0.00000000  *
    16       H         -1.73423700  *  -2.94537900  *   0.00000000  *
    17       H          0.93776100  *  -4.48341300  *   0.00000000  *
    18       H         -0.77042500  *  -5.19381900  *   0.00000000  *
 


          CARTESIAN COORDINATES 

    NO.       ATOM           X           Y           Z

     1         C          0.1364      4.3126      0.0000
     2         C          0.6508      3.0710      0.0000
     3         C         -0.1364      1.8560      0.0000
     4         C          0.3893      0.6063      0.0000
     5         C         -0.3893     -0.6063      0.0000
     6         C          0.1364     -1.8560      0.0000
     7         C         -0.6508     -3.0710      0.0000
     8         C         -0.1364     -4.3126      0.0000
     9         H          0.7704      5.1938      0.0000
    10         H         -0.9378      4.4834      0.0000
    11         H          1.7342      2.9454      0.0000
    12         H         -1.2211      1.9728      0.0000
    13         H          1.4746      0.4943      0.0000
    14         H         -1.4746     -0.4943      0.0000
    15         H          1.2211     -1.9728      0.0000
    16         H         -1.7342     -2.9454      0.0000
    17         H          0.9378     -4.4834      0.0000
    18         H         -0.7704     -5.1938      0.0000

           Empirical Formula: C8 H10  =    18 atoms



      MOLECULAR POINT GROUP   :   C2h 


      RHF CALCULATION, NO. OF DOUBLY OCCUPIED LEVELS = 21

 WARNING: INDO only performs single-point calculations

 Summary of symmetry occupancy in each shell:

 SHELL     
    1   21
    v   21
 TOTAL  42




    ROOT NO.    1           2           3           4           5           6

           -40.18409   -38.11453   -35.02602   -31.26250   -26.60496   -24.72015
  
  
  S  C   1   0.15648     0.28333     0.35735    -0.36108     0.32421    -0.08539
 PX  C   1   0.01124     0.02285     0.03360    -0.03737     0.01539     0.11218
 PY  C   1  -0.06793    -0.10827    -0.09771     0.02574     0.11501    -0.02805
 PZ  C   1   0.00000     0.00000     0.00000    -0.00000    -0.00000     0.00000
  
  S  C   2   0.27046     0.40049     0.32959    -0.11198    -0.14956     0.16488
 PX  C   2  -0.04418    -0.06608    -0.05212     0.00937     0.02481     0.17555
 PY  C   2  -0.04808    -0.01547     0.11130    -0.24420     0.26965    -0.04584
 PZ  C   2  -0.00000    -0.00000    -0.00000     0.00000    -0.00000    -0.00000
  
  S  C   3   0.37049     0.35027    -0.01626     0.30834    -0.24158    -0.17784
 PX  C   3   0.04964     0.06133     0.01718     0.05238    -0.08997     0.25358
 PY  C   3  -0.04763     0.06072     0.21120    -0.14321    -0.16550     0.03418
 PZ  C   3  -0.00000    -0.00000    -0.00000     0.00000    -0.00000     0.00000
  
  S  C   4   0.41936     0.14747    -0.32819     0.23600     0.19101     0.15320
 PX  C   4  -0.06039    -0.00978     0.06716    -0.02569    -0.07460     0.28623
 PY  C   4  -0.00001     0.13938     0.09466     0.21568    -0.24246    -0.06154
 PZ  C   4  -0.00000    -0.00000    -0.00000     0.00000     0.00000    -0.00000
  
  S  C   5   0.41936    -0.14747    -0.32819    -0.23600     0.19101    -0.15320
 PX  C   5   0.06039    -0.00978    -0.06716    -0.02569     0.07460     0.28623
 PY  C   5   0.00001     0.13938    -0.09466     0.21568     0.24246    -0.06154
 PZ  C   5  -0.00000    -0.00000     0.00000     0.00000    -0.00000    -0.00000
  
  S  C   6   0.37049    -0.35027    -0.01626    -0.30834    -0.24158     0.17784
 PX  C   6  -0.04964     0.06133    -0.01718     0.05238     0.08997     0.25358
 PY  C   6   0.04763     0.06072    -0.21120    -0.14321     0.16550     0.03418
 PZ  C   6   0.00000    -0.00000    -0.00000     0.00000    -0.00000    -0.00000
  
  S  C   7   0.27046    -0.40049     0.32959     0.11198    -0.14956    -0.16488
 PX  C   7   0.04418    -0.06608     0.05212     0.00937    -0.02481     0.17555
 PY  C   7   0.04808    -0.01547    -0.11130    -0.24420    -0.26965    -0.04584
 PZ  C   7  -0.00000    -0.00000    -0.00000     0.00000     0.00000     0.00000
  
  S  C   8   0.15648    -0.28333     0.35735     0.36108     0.32421     0.08539
 PX  C   8  -0.01124     0.02285    -0.03360    -0.03737    -0.01539     0.11218
 PY  C   8   0.06793    -0.10827     0.09771     0.02574    -0.11501    -0.02805
 PZ  C   8  -0.00000    -0.00000    -0.00000     0.00000     0.00000     0.00000
  
  S  H   9   0.04984     0.09737     0.14133    -0.17772     0.22426    -0.01488
  
  S  H  10   0.06514     0.11652     0.14587    -0.15114     0.16175    -0.12539
  
  S  H  11   0.11160     0.15870     0.12126    -0.03130    -0.07732     0.21167
  
  S  H  12   0.15155     0.13949    -0.00447     0.10712    -0.07022    -0.26653
  
  S  H  13   0.17234     0.05808    -0.12480     0.08496     0.06068     0.28488
  
  S  H  14   0.17234    -0.05808    -0.12480    -0.08496     0.06068    -0.28488
  
  S  H  15   0.15155    -0.13949    -0.00447    -0.10712    -0.07022     0.26653
  
  S  H  16   0.11160    -0.15870     0.12126     0.03130    -0.07732    -0.21167
  
  S  H  17   0.06514    -0.11652     0.14587     0.15114     0.16175     0.12539
  
  S  H  18   0.04984    -0.09737     0.14133     0.17772     0.22426     0.01488




    ROOT NO.    7           8           9          10          11          12

           -22.86493   -22.65749   -20.09911   -18.94038   -17.37719   -15.84646
  
  
  S  C   1  -0.07562    -0.23705    -0.02480     0.10068     0.01151     0.01363
 PX  C   1   0.21116     0.04319     0.27993    -0.13557    -0.27147     0.21896
 PY  C   1  -0.01551    -0.25599     0.07584     0.32630    -0.20942    -0.29539
 PZ  C   1   0.00000     0.00000     0.00000     0.00000     0.00000     0.00000
  
  S  C   2   0.19185     0.24821     0.06141    -0.14065     0.05971    -0.02325
 PX  C   2   0.28382    -0.02994     0.29170     0.03471    -0.18850    -0.12255
 PY  C   2   0.02696    -0.07705     0.11388    -0.23179    -0.02433     0.36839
 PZ  C   2  -0.00000     0.00000    -0.00000    -0.00000     0.00000    -0.00000
  
  S  C   3  -0.21294     0.01821    -0.01737     0.06872    -0.16682    -0.01819
 PX  C   3   0.22498    -0.03711    -0.03020     0.22974     0.19393    -0.20748
 PY  C   3  -0.07009     0.28554    -0.24603    -0.07950     0.15061    -0.11756
 PZ  C   3   0.00000     0.00000     0.00000     0.00000     0.00000    -0.00000
  
  S  C   4   0.09379    -0.25985    -0.04828    -0.01801     0.10521     0.14836
 PX  C   4   0.09639    -0.07300    -0.25213     0.16565     0.16535     0.11645
 PY  C   4  -0.01308    -0.13446     0.13799     0.31780    -0.12959    -0.01640
 PZ  C   4   0.00000     0.00000     0.00000    -0.00000     0.00000     0.00000
  
  S  C   5   0.09379     0.25985     0.04828    -0.01801     0.10521    -0.14836
 PX  C   5  -0.09639    -0.07300    -0.25213    -0.16565    -0.16535     0.11645
 PY  C   5   0.01308    -0.13446     0.13799    -0.31780     0.12959    -0.01640
 PZ  C   5  -0.00000     0.00000    -0.00000    -0.00000     0.00000     0.00000
  
  S  C   6  -0.21294    -0.01821     0.01737     0.06872    -0.16682     0.01819
 PX  C   6  -0.22498    -0.03711    -0.03020    -0.22974    -0.19393    -0.20748
 PY  C   6   0.07009     0.28554    -0.24603     0.07950    -0.15061    -0.11756
 PZ  C   6   0.00000     0.00000     0.00000     0.00000     0.00000    -0.00000
  
  S  C   7   0.19185    -0.24821    -0.06141    -0.14065     0.05971     0.02325
 PX  C   7  -0.28382    -0.02994     0.29170    -0.03471     0.18850    -0.12255
 PY  C   7  -0.02696    -0.07705     0.11388     0.23179     0.02433     0.36839
 PZ  C   7  -0.00000    -0.00000    -0.00000    -0.00000    -0.00000    -0.00000
  
  S  C   8  -0.07562     0.23705     0.02480     0.10068     0.01151    -0.01363
 PX  C   8  -0.21116     0.04319     0.27993     0.13557     0.27147     0.21896
 PY  C   8   0.01551    -0.25599     0.07584    -0.32630     0.20942    -0.29539
 PZ  C   8  -0.00000    -0.00000     0.00000     0.00000    -0.00000    -0.00000
  
  S  H   9   0.03714    -0.24276     0.15315     0.19073    -0.26139    -0.08345
  
  S  H  10  -0.19074    -0.17451    -0.21011     0.18640     0.19289    -0.20822
  
  S  H  11   0.29545     0.10673     0.23039    -0.02260    -0.10971    -0.14662
  
  S  H  12  -0.27154     0.05636    -0.00683    -0.13661    -0.21668     0.14109
  
  S  H  13   0.11595    -0.17276    -0.21456     0.08614     0.18649     0.16906
  
  S  H  14   0.11595     0.17276     0.21456     0.08614     0.18649    -0.16906
  
  S  H  15  -0.27154    -0.05636     0.00683    -0.13661    -0.21668    -0.14109
  
  S  H  16   0.29545    -0.10673    -0.23039    -0.02260    -0.10971     0.14662
  
  S  H  17  -0.19074     0.17451     0.21011     0.18640     0.19289     0.20822
  
  S  H  18   0.03714     0.24276    -0.15315     0.19073    -0.26139     0.08345




    ROOT NO.   13          14          15          16          17          18

           -14.72784   -13.99746   -13.28861   -13.16947   -12.70067   -12.63575
  
  
  S  C   1  -0.03726     0.05019    -0.04638    -0.03796    -0.00000     0.01991
 PX  C   1   0.21046     0.29185     0.01309    -0.23235    -0.00000    -0.13241
 PY  C   1   0.26595    -0.11549     0.15296    -0.01376    -0.00000    -0.16933
 PZ  C   1  -0.00000     0.00000    -0.00000    -0.00000     0.19081    -0.00000
  
  S  C   2  -0.05266    -0.05149    -0.01620    -0.02141    -0.00000    -0.06253
 PX  C   2   0.01744    -0.27255     0.08024     0.32210     0.00000     0.19479
 PY  C   2  -0.15930     0.16609    -0.12780     0.06324     0.00000     0.24843
 PZ  C   2  -0.00000     0.00000    -0.00000    -0.00000     0.29744    -0.00000
  
  S  C   3   0.09996     0.03620    -0.05657    -0.05824    -0.00000    -0.02038
 PX  C   3  -0.20330     0.04586    -0.23079    -0.29021    -0.00000    -0.17833
 PY  C   3   0.22952    -0.02447     0.25902    -0.06842     0.00000    -0.27223
 PZ  C   3  -0.00000    -0.00000    -0.00000    -0.00000     0.40939    -0.00000
  
  S  C   4  -0.06281     0.00756    -0.05100     0.01810    -0.00000    -0.05054
 PX  C   4   0.17611     0.23917     0.32475     0.09283     0.00000     0.18948
 PY  C   4  -0.16490     0.18834    -0.21316    -0.06583    -0.00000     0.29060
 PZ  C   4  -0.00000    -0.00000    -0.00000    -0.00000     0.45554    -0.00000
  
  S  C   5   0.06281     0.00756    -0.05100    -0.01810    -0.00000    -0.05054
 PX  C   5   0.17611    -0.23917    -0.32475     0.09283    -0.00000    -0.18948
 PY  C   5  -0.16490    -0.18834     0.21316    -0.06583    -0.00000    -0.29060
 PZ  C   5  -0.00000    -0.00000    -0.00000    -0.00000     0.45554    -0.00000
  
  S  C   6  -0.09996     0.03620    -0.05657     0.05824    -0.00000    -0.02038
 PX  C   6  -0.20330    -0.04586     0.23079    -0.29021     0.00000     0.17833
 PY  C   6   0.22952     0.02447    -0.25902    -0.06842    -0.00000     0.27223
 PZ  C   6  -0.00000    -0.00000    -0.00000    -0.00000     0.40939    -0.00000
  
  S  C   7   0.05266    -0.05149    -0.01620     0.02141    -0.00000    -0.06253
 PX  C   7   0.01744     0.27255    -0.08024     0.32210    -0.00000    -0.19479
 PY  C   7  -0.15930    -0.16609     0.12780     0.06324    -0.00000    -0.24843
 PZ  C   7  -0.00000    -0.00000    -0.00000    -0.00000     0.29744    -0.00000
  
  S  C   8   0.03726     0.05019    -0.04638     0.03796    -0.00000     0.01991
 PX  C   8   0.21046    -0.29185    -0.01309    -0.23235    -0.00000     0.13241
 PY  C   8   0.26595     0.11549    -0.15296    -0.01376     0.00000     0.16933
 PZ  C   8  -0.00000     0.00000    -0.00000    -0.00000     0.19081     0.00000
  
  S  H   9   0.29142     0.10636     0.10595    -0.16832    -0.00000    -0.20740
  
  S  H  10  -0.16673    -0.25837    -0.00866     0.21332     0.00000     0.12880
  
  S  H  11   0.00827    -0.28737     0.09673     0.29381     0.00000     0.13513
  
  S  H  12   0.24463    -0.02606     0.22968     0.24199     0.00000     0.14895
  
  S  H  13   0.12783     0.19070     0.31746     0.10899     0.00000     0.14334
  
  S  H  14  -0.12783     0.19070     0.31746    -0.10899     0.00000     0.14334
  
  S  H  15  -0.24463    -0.02606     0.22968    -0.24199     0.00000     0.14895
  
  S  H  16  -0.00827    -0.28737     0.09673    -0.29381     0.00000     0.13513
  
  S  H  17   0.16673    -0.25837    -0.00866    -0.21332    -0.00000     0.12880
  
  S  H  18  -0.29142     0.10636     0.10595     0.16832     0.00000    -0.20740




    ROOT NO.   19          20          21          22          23          24

           -11.37526    -9.49409    -7.42581    -0.45492     1.09247     2.22090
  
  
  S  C   1  -0.00000    -0.00000    -0.00000     0.00000     0.00000     0.00000
 PX  C   1   0.00000    -0.00000     0.00000     0.00000     0.00000    -0.00000
 PY  C   1   0.00000    -0.00000     0.00000     0.00000     0.00000    -0.00000
 PZ  C   1   0.35343     0.44640    -0.38636    -0.38038     0.43610    -0.34588
  
  S  C   2  -0.00000    -0.00000     0.00000    -0.00000    -0.00000    -0.00000
 PX  C   2   0.00000     0.00000    -0.00000     0.00000    -0.00000    -0.00000
 PY  C   2  -0.00000     0.00000    -0.00000     0.00000     0.00000     0.00000
 PZ  C   2   0.45428     0.39984    -0.19152     0.20016    -0.40710     0.46000
  
  S  C   3  -0.00000     0.00000     0.00000     0.00000     0.00000     0.00000
 PX  C   3  -0.00000    -0.00000    -0.00000    -0.00000     0.00000     0.00000
 PY  C   3  -0.00000     0.00000     0.00000     0.00000    -0.00000    -0.00000
 PZ  C   3   0.37005    -0.09434     0.43234     0.43155    -0.09393    -0.37049
  
  S  C   4  -0.00000     0.00000    -0.00000    -0.00000    -0.00000    -0.00000
 PX  C   4   0.00000    -0.00000     0.00000     0.00000     0.00000     0.00000
 PY  C   4   0.00000    -0.00000    -0.00000    -0.00000    -0.00000    -0.00000
 PZ  C   4   0.17828    -0.36327     0.35655    -0.35919     0.36778     0.17749
  
  S  C   5  -0.00000    -0.00000     0.00000     0.00000     0.00000     0.00000
 PX  C   5  -0.00000     0.00000    -0.00000    -0.00000    -0.00000    -0.00000
 PY  C   5   0.00000    -0.00000     0.00000     0.00000     0.00000     0.00000
 PZ  C   5  -0.17828    -0.36327    -0.35655    -0.35919    -0.36778     0.17749
  
  S  C   6  -0.00000     0.00000    -0.00000     0.00000     0.00000     0.00000
 PX  C   6   0.00000    -0.00000    -0.00000    -0.00000    -0.00000    -0.00000
 PY  C   6   0.00000     0.00000    -0.00000    -0.00000    -0.00000    -0.00000
 PZ  C   6  -0.37005    -0.09434    -0.43234     0.43155     0.09393    -0.37049
  
  S  C   7  -0.00000     0.00000    -0.00000    -0.00000    -0.00000    -0.00000
 PX  C   7  -0.00000     0.00000     0.00000    -0.00000    -0.00000    -0.00000
 PY  C   7  -0.00000     0.00000     0.00000    -0.00000    -0.00000    -0.00000
 PZ  C   7  -0.45428     0.39984     0.19152     0.20016     0.40710     0.46000
  
  S  C   8  -0.00000     0.00000    -0.00000     0.00000     0.00000     0.00000
 PX  C   8   0.00000    -0.00000    -0.00000     0.00000     0.00000     0.00000
 PY  C   8   0.00000     0.00000     0.00000    -0.00000     0.00000    -0.00000
 PZ  C   8  -0.35343     0.44640     0.38636    -0.38038    -0.43610    -0.34588
  
  S  H   9  -0.00000    -0.00000     0.00000    -0.00000    -0.00000    -0.00000
  
  S  H  10   0.00000     0.00000    -0.00000    -0.00000    -0.00000    -0.00000
  
  S  H  11   0.00000     0.00000    -0.00000     0.00000     0.00000     0.00000
  
  S  H  12   0.00000    -0.00000    -0.00000    -0.00000    -0.00000    -0.00000
  
  S  H  13   0.00000    -0.00000     0.00000     0.00000     0.00000     0.00000
  
  S  H  14   0.00000    -0.00000     0.00000    -0.00000    -0.00000    -0.00000
  
  S  H  15   0.00000    -0.00000    -0.00000     0.00000    -0.00000    -0.00000
  
  S  H  16   0.00000    -0.00000     0.00000     0.00000     0.00000     0.00000
  
  S  H  17   0.00000     0.00000    -0.00000    -0.00000    -0.00000    -0.00000
  
  S  H  18  -0.00000     0.00000     0.00000    -0.00000    -0.00000     0.00000




    ROOT NO.   25          26          27          28          29          30

             2.85863     3.02519     3.53446     4.03389     4.45343     4.82278
  
  
  S  C   1   0.00000    -0.18230    -0.28555     0.31355     0.31396     0.26674
 PX  C   1  -0.00000    -0.02269    -0.01709    -0.00677    -0.03439    -0.05393
 PY  C   1  -0.00000     0.05470     0.05349    -0.01061     0.06222     0.14040
 PZ  C   1   0.18877     0.00000    -0.00000     0.00000     0.00000     0.00000
  
  S  C   2  -0.00000     0.27478     0.36092    -0.25558    -0.04286     0.15303
 PX  C   2   0.00000    -0.04516    -0.02465    -0.01818    -0.02380     0.03706
 PY  C   2   0.00000    -0.06426    -0.01505    -0.09192    -0.18116    -0.17972
 PZ  C   2  -0.30203    -0.00000    -0.00000     0.00000     0.00000    -0.00000
  
  S  C   3   0.00000    -0.34491    -0.30383    -0.02904    -0.28989    -0.23054
 PX  C   3   0.00000    -0.04364    -0.02652     0.02007     0.06036     0.07058
 PY  C   3   0.00000     0.02679    -0.09309     0.17413     0.06114    -0.12227
 PZ  C   3   0.40905    -0.00000    -0.00000    -0.00000    -0.00000     0.00000
  
  S  C   4  -0.00000     0.37870     0.11340     0.31825     0.19451    -0.17732
 PX  C   4   0.00000    -0.05115     0.00634     0.00802     0.04954    -0.04814
 PY  C   4  -0.00000    -0.01955     0.13162    -0.09963     0.13375     0.14959
 PZ  C   4  -0.45368     0.00000     0.00000     0.00000     0.00000    -0.00000
  
  S  C   5   0.00000    -0.37870     0.11340    -0.31825     0.19451     0.17732
 PX  C   5  -0.00000    -0.05115    -0.00634     0.00802    -0.04954    -0.04814
 PY  C   5   0.00000    -0.01955    -0.13162    -0.09963    -0.13375     0.14959
 PZ  C   5   0.45368    -0.00000    -0.00000    -0.00000    -0.00000     0.00000
  
  S  C   6   0.00000     0.34491    -0.30383     0.02904    -0.28989     0.23054
 PX  C   6   0.00000    -0.04364     0.02652     0.02007    -0.06036     0.07058
 PY  C   6  -0.00000     0.02679     0.09309     0.17413    -0.06114    -0.12227
 PZ  C   6  -0.40905    -0.00000    -0.00000    -0.00000    -0.00000     0.00000
  
  S  C   7  -0.00000    -0.27478     0.36092     0.25558    -0.04286    -0.15303
 PX  C   7  -0.00000    -0.04516     0.02465    -0.01818     0.02380     0.03706
 PY  C   7  -0.00000    -0.06426     0.01505    -0.09192     0.18116    -0.17972
 PZ  C   7   0.30203     0.00000     0.00000     0.00000     0.00000    -0.00000
  
  S  C   8   0.00000     0.18230    -0.28555    -0.31355     0.31396    -0.26674
 PX  C   8  -0.00000    -0.02269     0.01709    -0.00677     0.03439    -0.05393
 PY  C   8   0.00000     0.05470    -0.05349    -0.01061    -0.06222     0.14040
 PZ  C   8  -0.18877    -0.00000    -0.00000    -0.00000    -0.00000     0.00000
  
  S  H   9  -0.00000     0.11649     0.17268    -0.18725    -0.21316    -0.23184
  
  S  H  10  -0.00000     0.08484     0.16456    -0.22151    -0.25623    -0.23550
  
  S  H  11   0.00000    -0.14257    -0.22782     0.19441     0.03399    -0.15712
  
  S  H  12  -0.00000     0.18118     0.19609     0.02135     0.26212     0.23323
  
  S  H  13   0.00000    -0.19917    -0.07115    -0.24942    -0.17493     0.17784
  
  S  H  14  -0.00000     0.19917    -0.07115     0.24942    -0.17493    -0.17784
  
  S  H  15  -0.00000    -0.18118     0.19609    -0.02135     0.26212    -0.23323
  
  S  H  16  -0.00000     0.14257    -0.22782    -0.19441     0.03399     0.15712
  
  S  H  17  -0.00000    -0.08484     0.16456     0.22151    -0.25623     0.23550
  
  S  H  18   0.00000    -0.11649     0.17268     0.18725    -0.21316     0.23184




    ROOT NO.   31          32          33          34          35          36

             5.36732     5.94660     6.34063     7.61307     7.63118     8.34458
  
  
  S  C   1  -0.16650     0.08242     0.03067     0.00013     0.00133    -0.00039
 PX  C   1   0.05578    -0.03282    -0.00780     0.46854     0.47610    -0.09439
 PY  C   1  -0.19364     0.16692     0.08151     0.14763     0.15588    -0.12403
 PZ  C   1   0.00000    -0.00000     0.00000    -0.00000    -0.00000    -0.00000
  
  S  C   2  -0.25418     0.20890     0.10138    -0.03829    -0.03729    -0.04402
 PX  C   2  -0.16953     0.25916     0.18579     0.00834    -0.00727     0.22538
 PY  C   2   0.07799     0.01684     0.03071    -0.00294    -0.01051     0.08170
 PZ  C   2  -0.00000     0.00000    -0.00000     0.00000     0.00000     0.00000
  
  S  C   3  -0.04206     0.20276     0.15675     0.00722     0.00364     0.07916
 PX  C   3   0.04640    -0.24259    -0.25086     0.11595     0.09154     0.29968
 PY  C   3   0.16506    -0.01270     0.06624     0.01134     0.02273    -0.05984
 PZ  C   3   0.00000    -0.00000     0.00000    -0.00000    -0.00000    -0.00000
  
  S  C   4   0.21192     0.08334     0.19164    -0.01146    -0.00470    -0.09548
 PX  C   4   0.15515     0.08555     0.32715     0.06731     0.01865     0.37003
 PY  C   4   0.07635    -0.13068    -0.02201    -0.01352    -0.02934     0.00983
 PZ  C   4   0.00000     0.00000     0.00000    -0.00000    -0.00000    -0.00000
  
  S  C   5   0.21192    -0.08334     0.19164     0.01146    -0.00470     0.09548
 PX  C   5  -0.15515     0.08555    -0.32715     0.06731    -0.01865     0.37003
 PY  C   5  -0.07635    -0.13068     0.02201    -0.01352     0.02934     0.00983
 PZ  C   5  -0.00000     0.00000    -0.00000     0.00000     0.00000    -0.00000
  
  S  C   6  -0.04206    -0.20276     0.15675    -0.00722     0.00364    -0.07916
 PX  C   6  -0.04640    -0.24259     0.25086     0.11595    -0.09154     0.29968
 PY  C   6  -0.16506    -0.01270    -0.06624     0.01134    -0.02273    -0.05984
 PZ  C   6   0.00000    -0.00000    -0.00000    -0.00000    -0.00000    -0.00000
  
  S  C   7  -0.25418    -0.20890     0.10138     0.03829    -0.03729     0.04402
 PX  C   7   0.16953     0.25916    -0.18579     0.00834     0.00727     0.22538
 PY  C   7  -0.07799     0.01684    -0.03071    -0.00294     0.01051     0.08170
 PZ  C   7  -0.00000     0.00000    -0.00000     0.00000    -0.00000     0.00000
  
  S  C   8  -0.16650    -0.08242     0.03067    -0.00013     0.00133     0.00039
 PX  C   8  -0.05578    -0.03282     0.00780     0.46854    -0.47610    -0.09439
 PY  C   8   0.19364     0.16692    -0.08151     0.14763    -0.15588    -0.12403
 PZ  C   8   0.00000    -0.00000     0.00000    -0.00000     0.00000    -0.00000
  
  S  H   9   0.21671    -0.16251    -0.07959    -0.31643    -0.32423     0.10396
  
  S  H  10   0.15342    -0.06810    -0.01580     0.35188     0.35464    -0.04028
  
  S  H  11   0.30188    -0.30903    -0.18341    -0.03354    -0.02083    -0.15839
  
  S  H  12   0.04899    -0.28613    -0.25332     0.09847     0.07496     0.23291
  
  S  H  13  -0.24946    -0.11535    -0.32572    -0.06244    -0.01973    -0.28061
  
  S  H  14  -0.24946     0.11535    -0.32572     0.06244    -0.01973     0.28061
  
  S  H  15   0.04899     0.28613    -0.25332    -0.09847     0.07496    -0.23291
  
  S  H  16   0.30188     0.30903    -0.18341     0.03354    -0.02083     0.15839
  
  S  H  17   0.15342     0.06810    -0.01580    -0.35188     0.35464     0.04028
  
  S  H  18   0.21671     0.16251    -0.07959     0.31643    -0.32423    -0.10396




    ROOT NO.   37          38          39          40          41          42

             8.72193     9.01224     9.66639    10.57406    12.22329    13.98093
  
  
  S  C   1   0.01453    -0.02766    -0.05756    -0.08930     0.09670    -0.06328
 PX  C   1  -0.03490    -0.02876    -0.11011    -0.14581     0.11959    -0.06303
 PY  C   1  -0.16707     0.15508     0.23320     0.33306    -0.31491     0.18583
 PZ  C   1   0.00000    -0.00000     0.00000     0.00000     0.00000    -0.00000
  
  S  C   2  -0.09405     0.10087     0.10608     0.09367    -0.02011    -0.02236
 PX  C   2   0.35816    -0.33719    -0.25583    -0.14246    -0.02333     0.06249
 PY  C   2   0.08738    -0.02792     0.15068     0.33346    -0.42589     0.30035
 PZ  C   2  -0.00000     0.00000    -0.00000    -0.00000    -0.00000    -0.00000
  
  S  C   3   0.10219    -0.03725     0.08399     0.11288    -0.03294    -0.04179
 PX  C   3   0.37768    -0.18503     0.17868     0.23361    -0.09271    -0.01018
 PY  C   3   0.06015    -0.22001    -0.29377    -0.06905    -0.33992     0.39795
 PZ  C   3   0.00000    -0.00000     0.00000     0.00000    -0.00000     0.00000
  
  S  C   4  -0.04284    -0.09879    -0.10701     0.02796    -0.09434     0.00868
 PX  C   4   0.10287     0.36000     0.24961    -0.10283     0.12965     0.03574
 PY  C   4  -0.14685     0.15283    -0.24733    -0.30304    -0.15430     0.44285
 PZ  C   4  -0.00000     0.00000    -0.00000    -0.00000    -0.00000     0.00000
  
  S  C   5  -0.04284     0.09879    -0.10701    -0.02796    -0.09434    -0.00868
 PX  C   5  -0.10287     0.36000    -0.24961    -0.10283    -0.12965     0.03574
 PY  C   5   0.14685     0.15283     0.24733    -0.30304     0.15430     0.44285
 PZ  C   5   0.00000    -0.00000     0.00000     0.00000    -0.00000     0.00000
  
  S  C   6   0.10219     0.03725     0.08399    -0.11288    -0.03294     0.04179
 PX  C   6  -0.37768    -0.18503    -0.17868     0.23361     0.09271    -0.01018
 PY  C   6  -0.06015    -0.22001     0.29377    -0.06905     0.33992     0.39795
 PZ  C   6   0.00000    -0.00000     0.00000     0.00000    -0.00000    -0.00000
  
  S  C   7  -0.09405    -0.10087     0.10608    -0.09367    -0.02011     0.02236
 PX  C   7  -0.35816    -0.33719     0.25583    -0.14246     0.02333     0.06249
 PY  C   7  -0.08738    -0.02792    -0.15068     0.33346     0.42589     0.30035
 PZ  C   7  -0.00000    -0.00000    -0.00000    -0.00000    -0.00000     0.00000
  
  S  C   8   0.01453     0.02766    -0.05756     0.08930     0.09670     0.06328
 PX  C   8   0.03490    -0.02876     0.11011    -0.14581    -0.11959    -0.06303
 PY  C   8   0.16707     0.15508    -0.23320     0.33306     0.31491     0.18583
 PZ  C   8   0.00000     0.00000     0.00000     0.00000    -0.00000     0.00000
  
  S  H   9   0.09048    -0.05501    -0.06519    -0.10111     0.09749    -0.05597
  
  S  H  10   0.01046    -0.04581    -0.09072    -0.10610     0.07704    -0.03789
  
  S  H  11  -0.23641     0.20868     0.14992     0.09218    -0.01417    -0.01047
  
  S  H  12   0.25293    -0.09593     0.11530     0.11538    -0.02229    -0.02211
  
  S  H  13  -0.08397    -0.21234    -0.14936     0.03177    -0.06297     0.00472
  
  S  H  14  -0.08397     0.21234    -0.14936    -0.03177    -0.06297    -0.00472
  
  S  H  15   0.25293     0.09593     0.11530    -0.11538    -0.02229     0.02211
  
  S  H  16  -0.23641    -0.20868     0.14992    -0.09218    -0.01417     0.01047
  
  S  H  17   0.01046     0.04581    -0.09072     0.10610     0.07704     0.03789
  
  S  H  18   0.09048     0.05501    -0.06519     0.10111     0.09749     0.05597


 Reference determinate nber   1 is ALPHA 1 -  21
 SINGLE excitations FROM orbs   1 to  21 INTO orbs  22 to  42
 

 CI excitations=  442:        =442
 The lowest  442 spin-adapted configurations of multiplicity=  1
     sym   eV   cm**-1 -dets- dipole oscilator X FRAG ....Excitations named from first reference determinate
                       tot  #  Debye  strength
 
   1      0.000      0.  1  1  0.0000 0.000000 0  0 (    )->(       )
   2      4.256  34328.  1  1  0.0000 1.853444 1  1 (  21)->(  22   )
   3      5.592  45099.  1  1  0.0000 0.000000 1  1 (  21)->(  23   )
   4      6.128  49424.  1  1  0.0000 0.000000 1  1 (  20)->(  22   )
   5      6.194  49960.  1  1  0.0000 0.000013 1  1 (  21)->(  26   )
   6      6.496  52391.  1  1  0.0000 0.010230 1  1 (  21)->(  24   )
   7      6.831  55092.  1  1  0.0000 0.000000 1  1 (  21)->(  25   )
   8      6.984  56328.  1  1  0.0000 0.000000 1  1 (  21)->(  27   )
   9      7.444  60043.  1  1  0.0000 0.000950 1  1 (  21)->(  28   )
  10      7.763  62613.  1  1  0.0000 0.000138 1  1 (  18)->(  22   )
  11      7.777  62729.  1  1  0.0000 0.507707 1  1 (  20)->(  23   )
  12      7.781  62761.  1  1  0.0000 0.010247 1  1 (  19)->(  22   )
  13      7.895  63681.  1  1  0.0000 0.000000 1  1 (  21)->(  29   )
  14      8.201  66146.  1  1  0.0000 0.000087 1  1 (  15)->(  22   )
  15      8.260  66623.  1  1  0.0000 0.111352 1  1 (  21)->(  30   )
  16      8.524  68751.  1  1  0.0000 0.000000 1  1 (  20)->(  26   )
  17      8.559  69035.  1  1  0.0000 0.000000 1  1 (  20)->(  24   )
  18      8.600  69364.  1  1  0.0000 0.000000 1  1 (  16)->(  22   )
  19      8.759  70646.  1  1  0.0000 0.000000 1  1 (  21)->(  31   )
  20      8.794  70926.  1  1  0.0000 0.000000 1  1 (  17)->(  22   )
  21      8.873  71564.  1  1  0.0000 0.002735 1  1 (  20)->(  25   )
  22      9.117  73532.  1  1  0.0000 0.000026 1  1 (  20)->(  27   )
  23      9.216  74332.  1  1  0.0000 0.002953 1  1 (  21)->(  32   )
  24      9.274  74801.  1  1  0.0000 0.000000 1  1 (  21)->(  33   )
  25      9.313  75117.  1  1  0.0000 0.000000 1  1 (  19)->(  23   )
  26      9.451  76228.  1  1  0.0000 0.000397 1  1 (  14)->(  22   )
  27      9.507  76678.  1  1  0.0000 0.000000 1  1 (  18)->(  23   )
  28      9.630  77675.  1  1  0.0000 0.000000 1  1 (  20)->(  28   )
  29     10.060  81136.  1  1  0.0000 0.009881 1  1 (  20)->(  29   )
  30     10.085  81343.  1  1  0.0000 0.000000 1  1 (  13)->(  22   )
  31     10.193  82213.  1  1  0.0000 0.000000 1  1 (  15)->(  23   )
  32     10.197  82248.  1  1  0.0000 0.000029 1  1 (  16)->(  23   )
  33     10.302  83094.  1  1  0.0000 0.002202 1  1 (  17)->(  23   )
  34     10.344  83430.  1  1  0.0000 0.000000 1  1 (  19)->(  26   )
  35     10.363  83583.  1  1  0.0000 0.269691 1  1 (  19)->(  24   )
  36     10.401  83887.  1  1  0.0000 0.000000 1  1 (  20)->(  30   )
  37     10.575  85290.  1  1  0.0000 0.002247 1  1 (  18)->(  24   )
  38     10.659  85973.  1  1  0.0000 0.000000 1  1 (  19)->(  25   )
  39     10.858  87579.  1  1  0.0000 0.000000 1  1 (  18)->(  25   )
  40     10.872  87687.  1  1  0.0000 0.104207 1  1 (  20)->(  31   )
  41     10.911  88000.  1  1  0.0000 0.000000 1  1 (  14)->(  23   )
  42     10.919  88067.  1  1  0.0000 0.000000 1  1 (  19)->(  27   )
  43     11.136  89819.  1  1  0.0000 0.000000 1  1 (  15)->(  25   )
  44     11.167  90071.  1  1  0.0000 0.000000 1  1 (  16)->(  24   )
  45     11.206  90384.  1  1  0.0000 0.000000 1  1 (  17)->(  26   )
  46     11.233  90604.  1  1  0.0000 0.000133 1  1 (  21)->(  36   )
  47     11.238  90640.  1  1  0.0000 0.000000 1  1 (  12)->(  22   )
  48     11.301  91145.  1  1  0.0000 0.000734 1  1 (  15)->(  24   )
  49     11.316  91273.  1  1  0.0000 0.000070 1  1 (  21)->(  34   )
  50     11.340  91460.  1  1  0.0000 0.000000 1  1 (  17)->(  24   )
  51     11.366  91671.  1  1  0.0000 0.000000 1  1 (  21)->(  35   )
  52     11.414  92057.  1  1  0.0000 0.000000 1  1 (  20)->(  32   )
  53     11.484  92622.  1  1  0.0000 0.002942 1  1 (  19)->(  28   )
  54     11.679  94197.  1  1  0.0000 0.235593 1  1 (  17)->(  25   )
  55     11.710  94449.  1  1  0.0000 0.183697 1  1 (  18)->(  26   )
  56     11.725  94565.  1  1  0.0000 0.001651 1  1 (  20)->(  33   )
  57     11.759  94844.  1  1  0.0000 0.000000 1  1 (  21)->(  37   )
  58     11.774  94963.  1  1  0.0000 0.001357 1  1 (  13)->(  23   )
  59     11.849  95569.  1  1  0.0000 0.001964 1  1 (  16)->(  25   )
  60     11.903  96004.  1  1  0.0000 0.000000 1  1 (  19)->(  29   )
  61     11.919  96135.  1  1  0.0000 0.006626 1  1 (  21)->(  38   )
  62     12.085  97472.  1  1  0.0000 0.005272 1  1 (  14)->(  24   )
  63     12.106  97641.  1  1  0.0000 0.091151 1  1 (  15)->(  26   )
  64     12.180  98242.  1  1  0.0000 0.000743 1  1 (  17)->(  27   )
  65     12.244  98758.  1  1  0.0000 0.004159 1  1 (  19)->(  30   )
  66     12.436 100304.  1  1  0.0000 0.000000 1  1 (  16)->(  26   )
  67     12.498 100803.  1  1  0.0000 0.000000 1  1 (  18)->(  27   )
  68     12.576 101430.  1  1  0.0000 0.000000 1  1 (  21)->(  39   )
  69     12.591 101550.  1  1  0.0000 0.000000 1  1 (  17)->(  28   )
  70     12.679 102262.  1  1  0.0000 0.000000 1  1 (  14)->(  25   )
  71     12.711 102523.  1  1  0.0000 0.010100 1  1 (  12)->(  23   )
  72     12.725 102631.  1  1  0.0000 0.000000 1  1 (  19)->(  31   )
  73     12.790 103162.  1  1  0.0000 0.020661 1  1 (  11)->(  22   )
  74     12.878 103866.  1  1  0.0000 0.000000 1  1 (  13)->(  24   )
  75     12.944 104402.  1  1  0.0000 0.007373 1  1 (  18)->(  28   )
  76     12.998 104834.  1  1  0.0000 0.000000 1  1 (  15)->(  27   )
  77     13.074 105446.  1  1  0.0000 0.000590 1  1 (  17)->(  29   )
  78     13.136 105950.  1  1  0.0000 0.000000 1  1 (  20)->(  34   )
  79     13.140 105980.  1  1  0.0000 0.140541 1  1 (  16)->(  27   )
  80     13.142 106001.  1  1  0.0000 0.092993 1  1 (  19)->(  32   )
  81     13.156 106108.  1  1  0.0000 0.000341 1  1 (  20)->(  35   )
  82     13.218 106612.  1  1  0.0000 0.015236 1  1 (  14)->(  26   )
  83     13.322 107448.  1  1  0.0000 0.000000 1  1 (  18)->(  29   )
  84     13.388 107981.  1  1  0.0000 0.012678 1  1 (  13)->(  25   )
  85     13.443 108422.  1  1  0.0000 0.034041 1  1 (  15)->(  28   )
  86     13.459 108552.  1  1  0.0000 0.000000 1  1 (  17)->(  30   )
  87     13.549 109277.  1  1  0.0000 0.000000 1  1 (  16)->(  28   )
  88     13.561 109375.  1  1  0.0000 0.000000 1  1 (  19)->(  33   )
  89     13.658 110161.  1  1  0.0000 0.000000 1  1 (  20)->(  36   )
  90     13.668 110241.  1  1  0.0000 0.011994 1  1 (  21)->(  40   )
  91     13.762 111001.  1  1  0.0000 0.000000 1  1 (  12)->(  24   )
  92     13.764 111014.  1  1  0.0000 0.003607 1  1 (  18)->(  30   )
  93     13.879 111943.  1  1  0.0000 0.000000 1  1 (  14)->(  27   )
  94     13.920 112273.  1  1  0.0000 0.001694 1  1 (  17)->(  31   )
  95     13.929 112342.  1  1  0.0000 0.000000 1  1 (  15)->(  29   )
  96     13.972 112694.  1  1  0.0000 0.000000 1  1 (  13)->(  26   )
  97     13.988 112821.  1  1  0.0000 0.002087 1  1 (  16)->(  29   )
  98     14.046 113287.  1  1  0.0000 0.001379 1  1 (  20)->(  37   )
  99     14.158 114193.  1  1  0.0000 0.076951 1  1 (  17)->(  33   )
 100     14.170 114286.  1  1  0.0000 0.000000 1  1 (  18)->(  31   )
 101     14.185 114407.  1  1  0.0000 0.002017 1  1 (  10)->(  22   )
 102     14.222 114706.  1  1  0.0000 0.000000 1  1 (  20)->(  38   )
 103     14.257 114995.  1  1  0.0000 0.004494 1  1 (  15)->(  30   )
 104     14.344 115692.  1  1  0.0000 0.000000 1  1 (  17)->(  32   )
 105     14.355 115779.  1  1  0.0000 0.000000 1  1 (  16)->(  30   )
 106     14.417 116280.  1  1  0.0000 0.000000 1  1 (  11)->(  23   )
 107     14.481 116799.  1  1  0.0000 0.160962 1  1 (  14)->(  28   )
 108     14.554 117384.  1  1  0.0000 0.009554 1  1 (  12)->(  25   )
 109     14.618 117903.  1  1  0.0000 0.005748 1  1 (  18)->(  32   )
 110     14.644 118111.  1  1  0.0000 0.023264 1  1 (  13)->(  27   )
 111     14.700 118561.  1  1  0.0000 0.000000 1  1 (  18)->(  33   )
 112     14.759 119036.  1  1  0.0000 0.000000 1  1 (  15)->(  31   )
 113     14.820 119529.  1  1  0.0000 0.000000 1  1 (  14)->(  29   )
 114     14.872 119950.  1  1  0.0000 0.011146 1  1 (  16)->(  31   )
 115     14.893 120123.  1  1  0.0000 0.005233 1  1 (  20)->(  39   )
 116     15.109 121861.  1  1  0.0000 0.000000 1  1 (  12)->(  26   )
 117     15.121 121956.  1  1  0.0000 0.000000 1  1 (  13)->(  28   )
 118     15.163 122294.  1  1  0.0000 0.000655 1  1 (  19)->(  34   )
 119     15.192 122536.  1  1  0.0000 0.000000 1  1 (  19)->(  35   )
 120     15.194 122545.  1  1  0.0000 0.033859 1  1 (  14)->(  30   )
 121     15.215 122718.  1  1  0.0000 0.048659 1  1 (  15)->(  32   )
 122     15.242 122939.  1  1  0.0000 0.000000 1  1 (  15)->(  33   )
 123     15.292 123342.  1  1  0.0000 0.000000 1  1 (  21)->(  41   )
 124     15.419 124364.  1  1  0.0000 0.000000 1  1 (   9)->(  22   )
 125     15.468 124754.  1  1  0.0000 0.000000 1  1 (  16)->(  32   )
 126     15.491 124943.  1  1  0.0000 0.000148 1  1 (  19)->(  36   )
 127     15.542 125354.  1  1  0.0000 0.025977 1  1 (  11)->(  24   )
 128     15.637 126118.  1  1  0.0000 0.128179 1  1 (  13)->(  29   )
 129     15.650 126222.  1  1  0.0000 0.015775 1  1 (  12)->(  27   )
 130     15.677 126444.  1  1  0.0000 0.000000 1  1 (  19)->(  37   )
 131     15.745 126996.  1  1  0.0000 0.000000 1  1 (  20)->(  40   )
 132     15.759 127104.  1  1  0.0000 0.036918 1  1 (  16)->(  33   )
 133     15.790 127353.  1  1  0.0000 0.000000 1  1 (  14)->(  31   )
 134     15.816 127567.  1  1  0.0000 0.000000 1  1 (  10)->(  23   )
 135     15.985 128927.  1  1  0.0000 0.000000 1  1 (  13)->(  30   )
 136     16.051 129457.  1  1  0.0000 0.000054 1  1 (  19)->(  38   )
 137     16.092 129788.  1  1  0.0000 0.000000 1  1 (  11)->(  25   )
 138     16.145 130221.  1  1  0.0000 0.000000 1  1 (  17)->(  36   )
 139     16.226 130874.  1  1  0.0000 0.000000 1  1 (  12)->(  28   )
 140     16.274 131259.  1  1  0.0000 0.079621 1  1 (  14)->(  32   )
 141     16.428 132499.  1  1  0.0000 0.134890 1  1 (  13)->(  31   )
 142     16.559 133558.  1  1  0.0000 0.000000 1  1 (  14)->(  33   )
 143     16.620 134047.  1  1  0.0000 0.000120 1  1 (  11)->(  26   )
 144     16.667 134432.  1  1  0.0000 0.000488 1  1 (  21)->(  42   )
 145     16.698 134682.  1  1  0.0000 0.000000 1  1 (  19)->(  39   )
 146     16.705 134735.  1  1  0.0000 0.124550 1  1 (  12)->(  29   )
 147     16.838 135807.  1  1  0.0000 0.000000 1  1 (  17)->(  38   )
 148     16.840 135824.  1  1  0.0000 0.000022 1  1 (  17)->(  37   )
 149     16.855 135947.  1  1  0.0000 0.375158 1  1 (  18)->(  36   )
 150     16.928 136534.  1  1  0.0000 0.269151 1  1 (  18)->(  34   )
 151     16.947 136689.  1  1  0.0000 0.000000 1  1 (  17)->(  34   )
 152     16.995 137072.  1  1  0.0000 0.000000 1  1 (  18)->(  35   )
 153     16.998 137098.  1  1  0.0000 0.043183 1  1 (  10)->(  24   )
 154     17.005 137155.  1  1  0.0000 0.007094 1  1 (   9)->(  23   )
 155     17.015 137238.  1  1  0.0000 0.000000 1  1 (  13)->(  32   )
 156     17.024 137307.  1  1  0.0000 0.000348 1  1 (  17)->(  35   )
 157     17.059 137593.  1  1  0.0000 0.000000 1  1 (  12)->(  30   )
 158     17.223 138914.  1  1  0.0000 0.000000 1  1 (  11)->(  27   )
 159     17.290 139457.  1  1  0.0000 0.009353 1  1 (  13)->(  33   )
 160     17.309 139610.  1  1  0.0000 0.487252 1  1 (  15)->(  36   )
 161     17.391 140265.  1  1  0.0000 0.014137 1  1 (  20)->(  41   )
 162     17.413 140443.  1  1  0.0000 0.000000 1  1 (  10)->(  25   )
 163     17.461 140830.  1  1  0.0000 0.000000 1  1 (  16)->(  34   )
 164     17.466 140874.  1  1  0.0000 0.000000 1  1 (  18)->(  37   )
 165     17.492 141080.  1  1  0.0000 0.208718 1  1 (  16)->(  35   )
 166     17.553 141577.  1  1  0.0000 0.040598 1  1 (  12)->(  31   )
 167     17.598 141935.  1  1  0.0000 0.000105 1  1 (  17)->(  39   )
 168     17.606 142006.  1  1  0.0000 0.009079 1  1 (  19)->(  40   )
 169     17.720 142921.  1  1  0.0000 0.139976 1  1 (  15)->(  34   )
 170     17.762 143260.  1  1  0.0000 0.010486 1  1 (  15)->(  38   )
 171     17.781 143416.  1  1  0.0000 0.000000 1  1 (  15)->(  35   )
 172     17.785 143445.  1  1  0.0000 0.000000 1  1 (  16)->(  36   )
 173     17.786 143454.  1  1  0.0000 0.001754 1  1 (  11)->(  28   )
 174     17.797 143545.  1  1  0.0000 0.010229 1  1 (  18)->(  38   )
 175     17.847 143946.  1  1  0.0000 0.000000 1  1 (  15)->(  37   )
 176     17.992 145112.  1  1  0.0000 0.000000 1  1 (  12)->(  32   )
 177     18.010 145259.  1  1  0.0000 0.000000 1  1 (  18)->(  39   )
 178     18.077 145804.  1  1  0.0000 0.000000 1  1 (   8)->(  22   )
 179     18.078 145806.  1  1  0.0000 0.001796 1  1 (  10)->(  26   )
 180     18.116 146119.  1  1  0.0000 0.000000 1  1 (   9)->(  24   )
 181     18.213 146896.  1  1  0.0000 0.138798 1  1 (  14)->(  34   )
 182     18.238 147099.  1  1  0.0000 0.000000 1  1 (  14)->(  35   )
 183     18.257 147254.  1  1  0.0000 0.000000 1  1 (  11)->(  29   )
 184     18.271 147369.  1  1  0.0000 0.009641 1  1 (   7)->(  22   )
 185     18.278 147423.  1  1  0.0000 0.361695 1  1 (  16)->(  37   )
 186     18.409 148481.  1  1  0.0000 0.015364 1  1 (  12)->(  33   )
 187     18.427 148624.  1  1  0.0000 0.000000 1  1 (  16)->(  38   )
 188     18.524 149408.  1  1  0.0000 0.066954 1  1 (  14)->(  36   )
 189     18.610 150102.  1  1  0.0000 0.000204 1  1 (   9)->(  25   )
 190     18.643 150362.  1  1  0.0000 0.239342 1  1 (  11)->(  30   )
 191     18.743 151170.  1  1  0.0000 0.000000 1  1 (  10)->(  27   )
 192     18.847 152008.  1  1  0.0000 0.000000 1  1 (  17)->(  40   )
 193     18.861 152129.  1  1  0.0000 0.000000 1  1 (  14)->(  37   )
 194     18.929 152671.  1  1  0.0000 0.014283 1  1 (  16)->(  39   )
 195     18.977 153060.  1  1  0.0000 0.000000 1  1 (  13)->(  34   )
 196     19.014 153358.  1  1  0.0000 0.185248 1  1 (  13)->(  35   )
 197     19.024 153438.  1  1  0.0000 0.000000 1  1 (  15)->(  39   )
 198     19.117 154186.  1  1  0.0000 0.000000 1  1 (  19)->(  41   )
 199     19.117 154192.  1  1  0.0000 0.000000 1  1 (  20)->(  42   )
 200     19.148 154438.  1  1  0.0000 0.000000 1  1 (  11)->(  31   )
 201     19.158 154521.  1  1  0.0000 0.000000 1  1 (   9)->(  26   )
 202     19.250 155260.  1  1  0.0000 0.000755 1  1 (  10)->(  28   )
 203     19.278 155488.  1  1  0.0000 0.174991 1  1 (  14)->(  38   )
 204     19.289 155573.  1  1  0.0000 0.000000 1  1 (  13)->(  36   )
 205     19.310 155748.  1  1  0.0000 0.015860 1  1 (  18)->(  40   )
 206     19.621 158256.  1  1  0.0000 0.070129 1  1 (  13)->(  37   )
 207     19.717 159026.  1  1  0.0000 0.010875 1  1 (  11)->(  32   )
 208     19.749 159287.  1  1  0.0000 0.000000 1  1 (  10)->(  29   )
 209     19.760 159373.  1  1  0.0000 0.278119 1  1 (   8)->(  23   )
 210     19.766 159422.  1  1  0.0000 0.000000 1  1 (  12)->(  34   )
 211     19.780 159533.  1  1  0.0000 0.137288 1  1 (  12)->(  35   )
 212     19.790 159615.  1  1  0.0000 0.000000 1  1 (  13)->(  38   )
 213     19.820 159856.  1  1  0.0000 0.000000 1  1 (  14)->(  39   )
 214     19.843 160044.  1  1  0.0000 0.000000 1  1 (  16)->(  40   )
 215     19.857 160156.  1  1  0.0000 0.000000 1  1 (   6)->(  22   )
 216     19.863 160205.  1  1  0.0000 0.001335 1  1 (   9)->(  27   )
 217     19.884 160374.  1  1  0.0000 0.027159 1  1 (  15)->(  40   )
 218     19.901 160509.  1  1  0.0000 0.000000 1  1 (   7)->(  23   )
 219     19.993 161257.  1  1  0.0000 0.000000 1  1 (  11)->(  33   )
 220     20.127 162338.  1  1  0.0000 0.049826 1  1 (  10)->(  30   )
 221     20.313 163837.  1  1  0.0000 0.000000 1  1 (  12)->(  36   )
 222     20.447 164918.  1  1  0.0000 0.000000 1  1 (   9)->(  28   )
 223     20.495 165303.  1  1  0.0000 0.006132 1  1 (  17)->(  41   )
 224     20.582 166002.  1  1  0.0000 0.000000 1  1 (  10)->(  31   )
 225     20.643 166499.  1  1  0.0000 0.080135 1  1 (  12)->(  37   )
 226     20.667 166688.  1  1  0.0000 0.096178 1  1 (  13)->(  39   )
 227     20.843 168114.  1  1  0.0000 0.005552 1  1 (   9)->(  29   )
 228     20.850 168170.  1  1  0.0000 0.000000 1  1 (   8)->(  24   )
 229     20.860 168250.  1  1  0.0000 0.267865 1  1 (  14)->(  40   )
 230     20.879 168404.  1  1  0.0000 0.142314 1  1 (   7)->(  24   )
 231     20.922 168746.  1  1  0.0000 0.006977 1  1 (  19)->(  42   )
 232     20.976 169180.  1  1  0.0000 0.000000 1  1 (  12)->(  38   )
 233     21.071 169951.  1  1  0.0000 0.000000 1  1 (  18)->(  41   )
 234     21.097 170157.  1  1  0.0000 0.083636 1  1 (  10)->(  32   )
 235     21.223 171174.  1  1  0.0000 0.000000 1  1 (  10)->(  33   )
 236     21.269 171546.  1  1  0.0000 0.000000 1  1 (   9)->(  30   )
 237     21.349 172190.  1  1  0.0000 0.000104 1  1 (   8)->(  25   )
 238     21.370 172364.  1  1  0.0000 0.335766 1  1 (  16)->(  41   )
 239     21.481 173254.  1  1  0.0000 0.000000 1  1 (   7)->(  25   )
 240     21.507 173463.  1  1  0.0000 0.000000 1  1 (  13)->(  40   )
 241     21.567 173954.  1  1  0.0000 0.000000 1  1 (  17)->(  42   )
 242     21.594 174165.  1  1  0.0000 0.000000 1  1 (  15)->(  41   )
 243     21.689 174935.  1  1  0.0000 0.136983 1  1 (  12)->(  39   )
 244     21.703 175050.  1  1  0.0000 0.044951 1  1 (  11)->(  34   )
 245     21.716 175154.  1  1  0.0000 0.003292 1  1 (   6)->(  23   )
 246     21.742 175361.  1  1  0.0000 0.000000 1  1 (  11)->(  35   )
 247     21.870 176392.  1  1  0.0000 0.220240 1  1 (   9)->(  31   )
 248     21.896 176603.  1  1  0.0000 0.049544 1  1 (  11)->(  36   )
 249     21.942 176978.  1  1  0.0000 0.000494 1  1 (   7)->(  26   )
 250     21.951 177050.  1  1  0.0000 0.000000 1  1 (   8)->(  26   )
 251     22.044 177799.  1  1  0.0000 0.362535 1  1 (   5)->(  22   )
 252     22.314 179975.  1  1  0.0000 0.000000 1  1 (   9)->(  32   )
 253     22.316 179992.  1  1  0.0000 0.000000 1  1 (  14)->(  41   )
 254     22.359 180339.  1  1  0.0000 0.000000 1  1 (  11)->(  37   )
 255     22.552 181896.  1  1  0.0000 0.032468 1  1 (  11)->(  38   )
 256     22.563 181984.  1  1  0.0000 0.003637 1  1 (   9)->(  33   )
 257     22.573 182063.  1  1  0.0000 0.004885 1  1 (   8)->(  27   )
 258     22.654 182719.  1  1  0.0000 0.382568 1  1 (  18)->(  42   )
 259     22.657 182740.  1  1  0.0000 0.000000 1  1 (   7)->(  27   )
 260     22.687 182987.  1  1  0.0000 0.216838 1  1 (  15)->(  42   )
 261     22.787 183793.  1  1  0.0000 0.000000 1  1 (   6)->(  24   )
 262     22.868 184443.  1  1  0.0000 0.153235 1  1 (   6)->(  25   )
 263     22.874 184492.  1  1  0.0000 0.000000 1  1 (  12)->(  40   )
 264     22.939 185013.  1  1  0.0000 0.099972 1  1 (  10)->(  34   )
 265     22.964 185219.  1  1  0.0000 0.000000 1  1 (  10)->(  35   )
 266     23.028 185732.  1  1  0.0000 0.000000 1  1 (   8)->(  28   )
 267     23.084 186183.  1  1  0.0000 0.000000 1  1 (  16)->(  42   )
 268     23.159 186786.  1  1  0.0000 0.000000 1  1 (  11)->(  39   )
 269     23.170 186878.  1  1  0.0000 0.000533 1  1 (   7)->(  28   )
 270     23.175 186917.  1  1  0.0000 0.160668 1  1 (  13)->(  41   )
 271     23.340 188250.  1  1  0.0000 0.028445 1  1 (  10)->(  36   )
 272     23.499 189536.  1  1  0.0000 0.005328 1  1 (   8)->(  29   )
 273     23.502 189560.  1  1  0.0000 0.000000 1  1 (   6)->(  26   )
 274     23.644 190706.  1  1  0.0000 0.000000 1  1 (   5)->(  23   )
 275     23.651 190760.  1  1  0.0000 0.000000 1  1 (   7)->(  29   )
 276     23.777 191777.  1  1  0.0000 0.000000 1  1 (  10)->(  37   )
 277     23.886 192653.  1  1  0.0000 0.000000 1  1 (   8)->(  30   )
 278     23.981 193424.  1  1  0.0000 0.063665 1  1 (  10)->(  38   )
 279     24.014 193685.  1  1  0.0000 0.092257 1  1 (  11)->(  40   )
 280     24.041 193904.  1  1  0.0000 0.026939 1  1 (  14)->(  42   )
 281     24.050 193978.  1  1  0.0000 0.002633 1  1 (   7)->(  30   )
 282     24.415 196922.  1  1  0.0000 0.001274 1  1 (   6)->(  27   )
 283     24.442 197139.  1  1  0.0000 0.000000 1  1 (   9)->(  34   )
 284     24.457 197259.  1  1  0.0000 0.004400 1  1 (   8)->(  31   )
 285     24.480 197448.  1  1  0.0000 0.026513 1  1 (   9)->(  35   )
 286     24.521 197772.  1  1  0.0000 0.091921 1  1 (  12)->(  41   )
 287     24.550 198007.  1  1  0.0000 0.000000 1  1 (   9)->(  36   )
 288     24.611 198501.  1  1  0.0000 0.000000 1  1 (   7)->(  31   )
 289     24.669 198971.  1  1  0.0000 0.000000 1  1 (  10)->(  39   )
 290     24.739 199535.  1  1  0.0000 0.012660 1  1 (   5)->(  24   )
 291     24.811 200115.  1  1  0.0000 0.000000 1  1 (  13)->(  42   )
 292     24.813 200134.  1  1  0.0000 0.000000 1  1 (   8)->(  32   )
 293     24.891 200762.  1  1  0.0000 0.000000 1  1 (   6)->(  28   )
 294     24.951 201247.  1  1  0.0000 0.047290 1  1 (   9)->(  37   )
 295     25.099 202436.  1  1  0.0000 0.010695 1  1 (   8)->(  33   )
 296     25.172 203023.  1  1  0.0000 0.000000 1  1 (   9)->(  38   )
 297     25.231 203504.  1  1  0.0000 0.000000 1  1 (   5)->(  25   )
 298     25.281 203905.  1  1  0.0000 0.124175 1  1 (   7)->(  32   )
 299     25.395 204824.  1  1  0.0000 0.000637 1  1 (   6)->(  29   )
 300     25.441 205199.  1  1  0.0000 0.000000 1  1 (   7)->(  33   )
 301     25.695 207243.  1  1  0.0000 0.000000 1  1 (  11)->(  41   )
 302     25.804 208122.  1  1  0.0000 0.000000 1  1 (   6)->(  30   )
 303     25.806 208141.  1  1  0.0000 0.001699 1  1 (   9)->(  39   )
 304     25.917 209034.  1  1  0.0000 0.000684 1  1 (   5)->(  26   )
 305     25.980 209545.  1  1  0.0000 0.000000 1  1 (  12)->(  42   )
 306     26.008 209765.  1  1  0.0000 0.043641 1  1 (  10)->(  40   )
 307     26.358 212593.  1  1  0.0000 0.000142 1  1 (   6)->(  31   )
 308     26.510 213820.  1  1  0.0000 0.000000 1  1 (   5)->(  27   )
 309     26.569 214297.  1  1  0.0000 0.000000 1  1 (   9)->(  40   )
 310     26.693 215295.  1  1  0.0000 0.000000 1  1 (   4)->(  22   )
 311     26.755 215792.  1  1  0.0000 0.000000 1  1 (   8)->(  34   )
 312     26.792 216089.  1  1  0.0000 0.060157 1  1 (   8)->(  35   )
 313     26.916 217091.  1  1  0.0000 0.000000 1  1 (   6)->(  32   )
 314     26.974 217559.  1  1  0.0000 0.013645 1  1 (   5)->(  28   )
 315     27.030 218013.  1  1  0.0000 0.130721 1  1 (   6)->(  33   )
 316     27.062 218267.  1  1  0.0000 0.000000 1  1 (   8)->(  36   )
 317     27.142 218919.  1  1  0.0000 0.028438 1  1 (   7)->(  34   )
 318     27.175 219185.  1  1  0.0000 0.000000 1  1 (   7)->(  35   )
 319     27.290 220112.  1  1  0.0000 0.003435 1  1 (   7)->(  36   )
 320     27.349 220587.  1  1  0.0000 0.000000 1  1 (   5)->(  29   )
 321     27.370 220758.  1  1  0.0000 0.008597 1  1 (  11)->(  42   )
 322     27.407 221056.  1  1  0.0000 0.000000 1  1 (  10)->(  41   )
 323     27.491 221732.  1  1  0.0000 0.040784 1  1 (   8)->(  37   )
 324     27.673 223197.  1  1  0.0000 0.000000 1  1 (   7)->(  37   )
 325     27.773 224006.  1  1  0.0000 0.000000 1  1 (   8)->(  38   )
 326     27.876 224837.  1  1  0.0000 0.009648 1  1 (   5)->(  30   )
 327     27.880 224868.  1  1  0.0000 0.002384 1  1 (   7)->(  38   )
 328     28.224 227644.  1  1  0.0000 0.000000 1  1 (   5)->(  31   )
 329     28.327 228473.  1  1  0.0000 0.012795 1  1 (   4)->(  23   )
 330     28.383 228927.  1  1  0.0000 0.003966 1  1 (   9)->(  41   )
 331     28.499 229864.  1  1  0.0000 0.000000 1  1 (   7)->(  39   )
 332     28.523 230052.  1  1  0.0000 0.050664 1  1 (   8)->(  39   )
 333     28.680 231318.  1  1  0.0000 0.000474 1  1 (   5)->(  32   )
 334     28.878 232914.  1  1  0.0000 0.000000 1  1 (   6)->(  36   )
 335     28.881 232939.  1  1  0.0000 0.000000 1  1 (   5)->(  33   )
 336     29.080 234545.  1  1  0.0000 0.006654 1  1 (  10)->(  42   )
 337     29.146 235077.  1  1  0.0000 0.000000 1  1 (   6)->(  34   )
 338     29.196 235486.  1  1  0.0000 0.014140 1  1 (   6)->(  35   )
 339     29.375 236930.  1  1  0.0000 0.000000 1  1 (   8)->(  40   )
 340     29.376 236937.  1  1  0.0000 0.000958 1  1 (   6)->(  37   )
 341     29.414 237243.  1  1  0.0000 0.000000 1  1 (   4)->(  24   )
 342     29.424 237324.  1  1  0.0000 0.021506 1  1 (   7)->(  40   )
 343     29.429 237359.  1  1  0.0000 0.000000 1  1 (   6)->(  38   )
 344     29.854 240788.  1  1  0.0000 0.001078 1  1 (   4)->(  25   )
 345     30.005 242005.  1  1  0.0000 0.000000 1  1 (   9)->(  42   )
 346     30.091 242702.  1  1  0.0000 0.002426 1  1 (   6)->(  39   )
 347     30.469 245751.  1  1  0.0000 0.000000 1  1 (   4)->(  26   )
 348     30.493 245940.  1  1  0.0000 0.007892 1  1 (   3)->(  22   )
 349     30.760 248095.  1  1  0.0000 0.023605 1  1 (   5)->(  34   )
 350     30.797 248396.  1  1  0.0000 0.000000 1  1 (   5)->(  35   )
 351     30.959 249705.  1  1  0.0000 0.000000 1  1 (   7)->(  41   )
 352     31.012 250129.  1  1  0.0000 0.006868 1  1 (   5)->(  36   )
 353     31.113 250944.  1  1  0.0000 0.002244 1  1 (   4)->(  27   )
 354     31.150 251246.  1  1  0.0000 0.032789 1  1 (   8)->(  41   )
 355     31.196 251616.  1  1  0.0000 0.000000 1  1 (   6)->(  40   )
 356     31.460 253747.  1  1  0.0000 0.000000 1  1 (   5)->(  37   )
 357     31.574 254658.  1  1  0.0000 0.000000 1  1 (   4)->(  28   )
 358     31.736 255968.  1  1  0.0000 0.072564 1  1 (   5)->(  38   )
 359     32.108 258969.  1  1  0.0000 0.017212 1  1 (   4)->(  29   )
 360     32.150 259312.  1  1  0.0000 0.000000 1  1 (   3)->(  23   )
 361     32.191 259637.  1  1  0.0000 0.000000 1  1 (   5)->(  39   )
 362     32.287 260411.  1  1  0.0000 0.000000 1  1 (   4)->(  30   )
 363     32.637 263235.  1  1  0.0000 0.001761 1  1 (   7)->(  42   )
 364     32.829 264786.  1  1  0.0000 0.000000 1  1 (   8)->(  42   )
 365     32.837 264849.  1  1  0.0000 0.001646 1  1 (   6)->(  41   )
 366     32.840 264875.  1  1  0.0000 0.001480 1  1 (   4)->(  31   )
 367     33.220 267935.  1  1  0.0000 0.003013 1  1 (   3)->(  24   )
 368     33.293 268530.  1  1  0.0000 0.000000 1  1 (   4)->(  32   )
 369     33.411 269481.  1  1  0.0000 0.026698 1  1 (   5)->(  40   )
 370     33.477 270012.  1  1  0.0000 0.000009 1  1 (   4)->(  33   )
 371     33.583 270867.  1  1  0.0000 0.000000 1  1 (   2)->(  22   )
 372     33.708 271877.  1  1  0.0000 0.000000 1  1 (   3)->(  25   )
 373     34.054 274667.  1  1  0.0000 0.000000 1  1 (   6)->(  42   )
 374     34.279 276483.  1  1  0.0000 0.000656 1  1 (   3)->(  26   )
 375     34.892 281427.  1  1  0.0000 0.000000 1  1 (   3)->(  27   )
 376     35.122 283280.  1  1  0.0000 0.000000 1  1 (   5)->(  41   )
 377     35.213 284013.  1  1  0.0000 0.001793 1  1 (   2)->(  23   )
 378     35.377 285336.  1  1  0.0000 0.000082 1  1 (   1)->(  22   )
 379     35.420 285680.  1  1  0.0000 0.000000 1  1 (   4)->(  34   )
 380     35.462 286017.  1  1  0.0000 0.011496 1  1 (   4)->(  35   )
 381     35.481 286171.  1  1  0.0000 0.013890 1  1 (   3)->(  28   )
 382     35.573 286916.  1  1  0.0000 0.000000 1  1 (   4)->(  36   )
 383     35.761 288435.  1  1  0.0000 0.000000 1  1 (   3)->(  29   )
 384     36.023 290547.  1  1  0.0000 0.007893 1  1 (   4)->(  37   )
 385     36.119 291323.  1  1  0.0000 0.010146 1  1 (   3)->(  30   )
 386     36.135 291447.  1  1  0.0000 0.000000 1  1 (   4)->(  38   )
 387     36.264 292488.  1  1  0.0000 0.000000 1  1 (   2)->(  24   )
 388     36.582 295053.  1  1  0.0000 0.000000 1  1 (   3)->(  31   )
 389     36.796 296778.  1  1  0.0000 0.000451 1  1 (   2)->(  25   )
 390     36.813 296921.  1  1  0.0000 0.002844 1  1 (   5)->(  42   )
 391     37.096 299199.  1  1  0.0000 0.001015 1  1 (   3)->(  32   )
 392     37.160 299716.  1  1  0.0000 0.078814 1  1 (   4)->(  39   )
 393     37.225 300238.  1  1  0.0000 0.000000 1  1 (   1)->(  23   )
 394     37.325 301046.  1  1  0.0000 0.000000 1  1 (   3)->(  33   )
 395     37.337 301142.  1  1  0.0000 0.000000 1  1 (   2)->(  26   )
 396     38.033 306758.  1  1  0.0000 0.026152 1  1 (   2)->(  27   )
 397     38.164 307811.  1  1  0.0000 0.000000 1  1 (   4)->(  40   )
 398     38.302 308931.  1  1  0.0000 0.000329 1  1 (   1)->(  24   )
 399     38.399 309713.  1  1  0.0000 0.000000 1  1 (   1)->(  25   )
 400     38.410 309797.  1  1  0.0000 0.000000 1  1 (   2)->(  28   )
 401     38.856 313398.  1  1  0.0000 0.003703 1  1 (   2)->(  29   )
 402     39.094 315316.  1  1  0.0000 0.034765 1  1 (   1)->(  26   )
 403     39.126 315570.  1  1  0.0000 0.008410 1  1 (   3)->(  34   )
 404     39.161 315853.  1  1  0.0000 0.000000 1  1 (   3)->(  35   )
 405     39.217 316307.  1  1  0.0000 0.000000 1  1 (   2)->(  30   )
 406     39.425 317986.  1  1  0.0000 0.002421 1  1 (   3)->(  36   )
 407     39.695 320165.  1  1  0.0000 0.005109 1  1 (   2)->(  31   )
 408     39.798 320993.  1  1  0.0000 0.000000 1  1 (   3)->(  37   )
 409     39.829 321240.  1  1  0.0000 0.002852 1  1 (   4)->(  41   )
 410     39.913 321918.  1  1  0.0000 0.000000 1  1 (   1)->(  27   )
 411     40.133 323692.  1  1  0.0000 0.000000 1  1 (   2)->(  32   )
 412     40.212 324329.  1  1  0.0000 0.020834 1  1 (   3)->(  38   )
 413     40.343 325390.  1  1  0.0000 0.001063 1  1 (   1)->(  28   )
 414     40.419 325999.  1  1  0.0000 0.001142 1  1 (   2)->(  33   )
 415     40.809 329149.  1  1  0.0000 0.000000 1  1 (   1)->(  29   )
 416     40.862 329571.  1  1  0.0000 0.000000 1  1 (   3)->(  39   )
 417     41.197 332277.  1  1  0.0000 0.001449 1  1 (   1)->(  30   )
 418     41.452 334335.  1  1  0.0000 0.000000 1  1 (   4)->(  42   )
 419     41.662 336031.  1  1  0.0000 0.000000 1  1 (   1)->(  31   )
 420     41.916 338080.  1  1  0.0000 0.090283 1  1 (   3)->(  40   )
 421     41.993 338700.  1  1  0.0000 0.000000 1  1 (   1)->(  33   )
 422     42.086 339449.  1  1  0.0000 0.001721 1  1 (   1)->(  32   )
 423     42.215 340489.  1  1  0.0000 0.000000 1  1 (   2)->(  34   )
 424     42.249 340765.  1  1  0.0000 0.008639 1  1 (   2)->(  35   )
 425     42.503 342811.  1  1  0.0000 0.000000 1  1 (   2)->(  36   )
 426     43.024 347012.  1  1  0.0000 0.024713 1  1 (   2)->(  37   )
 427     43.188 348333.  1  1  0.0000 0.000000 1  1 (   2)->(  38   )
 428     43.574 351447.  1  1  0.0000 0.000000 1  1 (   3)->(  41   )
 429     43.904 354107.  1  1  0.0000 0.000975 1  1 (   2)->(  39   )
 430     44.264 357018.  1  1  0.0000 0.033551 1  1 (   1)->(  36   )
 431     44.554 359353.  1  1  0.0000 0.008020 1  1 (   1)->(  34   )
 432     44.608 359792.  1  1  0.0000 0.000000 1  1 (   1)->(  35   )
 433     44.806 361390.  1  1  0.0000 0.000000 1  1 (   1)->(  37   )
 434     44.890 362066.  1  1  0.0000 0.000090 1  1 (   1)->(  38   )
 435     44.924 362338.  1  1  0.0000 0.000000 1  1 (   2)->(  40   )
 436     45.181 364413.  1  1  0.0000 0.000322 1  1 (   3)->(  42   )
 437     45.679 368429.  1  1  0.0000 0.000000 1  1 (   1)->(  39   )
 438     46.526 375258.  1  1  0.0000 0.113456 1  1 (   2)->(  41   )
 439     46.831 377718.  1  1  0.0000 0.000434 1  1 (   1)->(  40   )
 440     48.169 388513.  1  1  0.0000 0.000000 1  1 (   2)->(  42   )
 441     48.480 391021.  1  1  0.0000 0.000000 1  1 (   1)->(  41   )
 442     49.712 400952.  1  1  0.0000 0.120671 1  1 (   1)->(  42   )

 Depression of ground-state after CI=          0. cm**-1 Energy= -4434.9707338 eV
 Dipole moment=  0.000000 -0.000000  0.000000 tot=  0.000000 Debyes


  CI trans.  energy frequency wavelength oscillator ---------polarization---------    dipole   ------components----- 
 st.  symm.    eV      cm-1       nm      strength       x          y         z       moment     x       y       z 

   2      3.8413219    30982.    322.76  1.698793   0.111818  -0.993729   0.000000  0.000000  -0.000  -0.000  -0.000
   3      5.1295085    41372.    241.71  0.000000                                   0.000000  -0.000  -0.000   0.000
   4      5.6759122    45779.    218.44  0.000000                                   0.000000  -0.000  -0.000  -0.000
   5      5.7961058    46749.    213.91  0.000001   0.000000  -0.000000   1.000000  0.000000  -0.000  -0.000   0.000
   6      5.9564554    48042.    208.15  0.039671  -0.150464   0.988616  -0.000000  0.000000  -0.000  -0.000   0.000
   7      6.3058969    50861.    196.62  0.000000                                   0.000000  -0.000  -0.000  -0.000
   8      6.3092071    50887.    196.51  0.000000                                   0.000000   0.000   0.000   0.000
   9      6.7821740    54702.    182.81  0.009284  -0.000000  -0.000000  -1.000000  0.000000  -0.000  -0.000  -0.000
  10      6.9746107    56254.    177.76  0.167884   0.471740  -0.881738  -0.000000  0.000000   0.000  -0.000   0.000
  11      7.1948925    58031.    172.32  0.000000                                   0.000000  -0.000   0.000   0.000
  12      7.2369006    58370.    171.32  0.000016   0.000000  -0.000000  -1.000000  0.000000  -0.000  -0.000  -0.000
  13      7.5539480    60927.    164.13  0.149860   0.000000  -0.000000   1.000000  0.000000   0.000  -0.000   0.000
  14      7.5904155    61221.    163.34  0.003675  -0.000000   0.000000   1.000000  0.000000   0.000  -0.000  -0.000
  15      7.6225592    61480.    162.65  0.092963  -0.852131   0.523328   0.000000  0.000000  -0.000  -0.000  -0.000
  16      7.6330468    61565.    162.43  0.000000                                   0.000000  -0.000  -0.000   0.000
  17      7.9070795    63775.    156.80  0.000000                                   0.000000  -0.000  -0.000   0.000
  18      8.0041019    64558.    154.90  0.000000                                   0.000000   0.000  -0.000   0.000
  19      8.2043189    66172.    151.12  0.000654   0.000000   0.000000  -1.000000  0.000000  -0.000  -0.000  -0.000
  20      8.3299176    67185.    148.84  0.000000                                   0.000000   0.000  -0.000  -0.000
  21      8.3470875    67324.    148.54  0.000000                                   0.000000  -0.000  -0.000   0.000
  22      8.3577649    67410.    148.35  0.054226  -0.643653   0.765317  -0.000000  0.000000   0.000   0.000  -0.000
  23      8.4072913    67810.    147.47  0.000000                                   0.000000  -0.000  -0.000   0.000
  24      8.4478854    68137.    146.76  0.008941   0.000000  -0.000000  -1.000000  0.000000   0.000  -0.000  -0.000
  25      8.7342135    70446.    141.95  0.000000                                   0.000000  -0.000  -0.000   0.000
  26      8.8253792    71182.    140.49  0.000000                                   0.000000  -0.000  -0.000  -0.000
  27      8.9390176    72098.    138.70  0.000001   0.000000  -0.000000   1.000000  0.000000  -0.000  -0.000   0.000
  28      9.2187080    74354.    134.49  0.000000                                   0.000000  -0.000  -0.000  -0.000
  29      9.2960449    74978.    133.37  0.000000                                   0.000000  -0.000  -0.000  -0.000
  30      9.4321136    76075.    131.45  0.003174  -0.000000  -0.000000   1.000000  0.000000   0.000  -0.000   0.000
  31      9.6370262    77728.    128.65  0.000000                                   0.000000  -0.000  -0.000  -0.000
  32      9.6892781    78149.    127.96  0.087566  -0.840189   0.542294   0.000000  0.000000   0.000  -0.000   0.000
  33      9.8023029    79061.    126.48  0.020425   0.000000  -0.000000   1.000000  0.000000   0.000   0.000   0.000
  34      9.9379001    80155.    124.76  0.000000                                   0.000000  -0.000  -0.000  -0.000
  35      9.9832094    80520.    124.19  0.000383   0.000000   0.000000  -1.000000  0.000000  -0.000   0.000  -0.000
  36     10.0014141    80667.    123.97  0.000000                                   0.000000   0.000  -0.000   0.000
  37     10.0823643    81320.    122.97  0.000016  -0.000000   0.000000  -1.000000  0.000000  -0.000  -0.000   0.000
  38     10.1541026    81899.    122.10  0.000000                                   0.000000  -0.000  -0.000   0.000
  39     10.2126450    82371.    121.40  0.039238  -0.895480   0.445102   0.000000  0.000000   0.000   0.000   0.000
  40     10.2181212    82415.    121.34  0.000613   0.000000  -0.000000   1.000000  0.000000  -0.000   0.000   0.000
  41     10.2496935    82670.    120.96  0.000000                                   0.000000   0.000  -0.000  -0.000
  42     10.5281909    84916.    117.76  0.001037   0.000000  -0.000000  -1.000000  0.000000  -0.000  -0.000  -0.000
  43     10.6263772    85708.    116.68  0.000000                                   0.000000  -0.000  -0.000  -0.000
  44     10.6979927    86285.    115.89  0.027004   0.000000   0.000000  -1.000000  0.000000  -0.000  -0.000   0.000
  45     10.7397282    86622.    115.44  0.000000                                   0.000000  -0.000   0.000  -0.000
  46     10.7886270    87016.    114.92  0.000000                                   0.000000  -0.000  -0.000  -0.000
  47     10.8684875    87660.    114.08  0.000164  -0.000000  -0.000000   1.000000  0.000000   0.000   0.000   0.000
  48     11.1303562    89773.    111.39  0.000000                                   0.000000  -0.000  -0.000  -0.000
  49     11.1391873    89844.    111.30  0.000006  -0.000000  -0.000000  -1.000000  0.000000   0.000   0.000   0.000
  50     11.2007892    90341.    110.69  0.000000                                   0.000000   0.000  -0.000   0.000
  51     11.2906893    91066.    109.81  0.001215   0.000000   0.000000   1.000000  0.000000   0.000   0.000  -0.000
  52     11.3137126    91251.    109.59  0.195627  -0.694028  -0.719948  -0.000000  0.000000  -0.000  -0.000   0.000
  53     11.4030627    91972.    108.73  0.012118   0.000000  -0.000000   1.000000  0.000000  -0.000  -0.000   0.000
  54     11.5676061    93299.    107.18  0.000000                                   0.000000  -0.000  -0.000  -0.000
  55     11.6362898    93853.    106.55  0.012523  -0.000000   0.000000  -1.000000  0.000000  -0.000  -0.000  -0.000
  56     11.6721959    94143.    106.22  0.000000                                   0.000000  -0.000  -0.000  -0.000
  57     11.7214095    94540.    105.78  0.000000                                   0.000000  -0.000  -0.000  -0.000
  58     11.7236687    94558.    105.76  0.069771   0.247065  -0.968999  -0.000000  0.000000  -0.000  -0.000   0.000
  59     11.7727994    94954.    105.31  0.000000                                   0.000000   0.000  -0.000   0.000
  60     11.8112213    95264.    104.97  0.000000                                   0.000000  -0.000  -0.000   0.000
  61     11.8857169    95865.    104.31  0.014500  -0.483419   0.875389   0.000000  0.000000   0.000   0.000   0.000
  62     12.0545206    97227.    102.85  0.258585  -0.817553   0.575854   0.000000  0.000000   0.000   0.000   0.000
  63     12.0559593    97238.    102.84  0.000000                                   0.000000  -0.000  -0.000  -0.000
  64     12.1146318    97711.    102.34  0.000000                                   0.000000  -0.000  -0.000   0.000
  65     12.1311674    97845.    102.20  0.000000                                   0.000000  -0.000   0.000   0.000
  66     12.1622475    98095.    101.94  0.004113  -0.000000   0.000000   1.000000  0.000000   0.000  -0.000  -0.000
  67     12.1929573    98343.    101.68  0.012929   0.000000  -0.000000   1.000000  0.000000   0.000  -0.000  -0.000
  68     12.3722993    99790.    100.21  0.000000                                   0.000000  -0.000  -0.000  -0.000
  69     12.5408032   101149.     98.86  0.008968   0.000000   0.000000  -1.000000  0.000000  -0.000  -0.000   0.000
  70     12.5487219   101213.     98.80  0.017784   0.160796   0.986988   0.000000  0.000000  -0.000  -0.000   0.000
  71     12.6101215   101708.     98.32  0.000000                                   0.000000  -0.000  -0.000   0.000
  72     12.7205680   102599.     97.47  0.006389  -0.000000   0.000000  -1.000000  0.000000  -0.000  -0.000   0.000
  73     12.7770223   103054.     97.04  0.000000                                   0.000000   0.000  -0.000   0.000
  74     12.7968007   103213.     96.89  0.027277   0.603240  -0.797560  -0.000000  0.000000  -0.000  -0.000  -0.000
  75     12.8276992   103463.     96.65  0.003194  -0.000000  -0.000000   1.000000  0.000000  -0.000   0.000  -0.000
  76     12.8339003   103513.     96.61  0.000000                                   0.000000   0.000   0.000   0.000
  77     12.9836427   104720.     95.49  0.005870  -0.937132   0.348976   0.000000  0.000000  -0.000  -0.000  -0.000
  78     13.0082481   104919.     95.31  0.000000                                   0.000000   0.000  -0.000   0.000
  79     13.0146696   104971.     95.26  0.008371   0.000000   0.000000   1.000000  0.000000   0.000   0.000  -0.000
  80     13.0883991   105565.     94.73  0.000000                                   0.000000  -0.000  -0.000   0.000
  81     13.1480172   106046.     94.30  0.018315  -0.000000  -0.000000  -1.000000  0.000000   0.000   0.000   0.000
  82     13.2297436   106705.     93.72  0.019908  -0.000000   0.000000   1.000000  0.000000  -0.000  -0.000   0.000
  83     13.2478892   106852.     93.59  0.000000                                   0.000000   0.000   0.000   0.000
  84     13.2531169   106894.     93.55  0.000000                                   0.000000  -0.000   0.000  -0.000
  85     13.2532368   106895.     93.55  0.000000                                   0.000000   0.000   0.000  -0.000
  86     13.4279403   108304.     92.33  0.001160  -0.000000   0.000000   1.000000  0.000000  -0.000  -0.000   0.000
  87     13.4800839   108724.     91.98  0.029555  -0.220939   0.975288   0.000000  0.000000  -0.000  -0.000   0.000
  88     13.4848660   108763.     91.94  0.000000                                   0.000000  -0.000   0.000   0.000
  89     13.5406894   109213.     91.56  0.000000                                   0.000000   0.000  -0.000  -0.000
  90     13.5876025   109592.     91.25  0.000000                                   0.000000  -0.000  -0.000  -0.000
  91     13.6787856   110327.     90.64  0.005433   0.593521   0.804819  -0.000000  0.000000  -0.000  -0.000   0.000
  92     13.6958998   110465.     90.53  0.001470   0.000000   0.000000   1.000000  0.000000   0.000   0.000  -0.000
  93     13.7481012   110886.     90.18  0.053237   0.000000   0.000000   1.000000  0.000000   0.000   0.000   0.000
  94     13.8212666   111476.     89.71  0.000000                                   0.000000   0.000   0.000   0.000
  95     13.8472201   111686.     89.54  0.003793   0.000000  -0.000000  -1.000000  0.000000   0.000   0.000   0.000
  96     13.8506898   111714.     89.51  0.103379   0.998158  -0.060661  -0.000000  0.000000  -0.000  -0.000  -0.000
  97     13.8645523   111825.     89.43  0.000000                                   0.000000   0.000  -0.000   0.000
  98     14.0231900   113105.     88.41  0.000000                                   0.000000   0.000  -0.000   0.000
  99     14.0760874   113532.     88.08  0.024799  -0.999088   0.042693  -0.000000  0.000000  -0.000  -0.000   0.000
 100     14.0936532   113673.     87.97  0.000000                                   0.000000   0.000  -0.000   0.000
 101     14.1663846   114260.     87.52  0.000000                                   0.000000  -0.000  -0.000  -0.000
 102     14.2305956   114778.     87.12  0.000000                                   0.000000  -0.000  -0.000   0.000
 103     14.2463359   114905.     87.03  0.094262  -0.185368   0.982669   0.000000  0.000000  -0.000   0.000   0.000
 104     14.3141716   115452.     86.62  0.000000                                   0.000000   0.000  -0.000  -0.000
 105     14.3847054   116021.     86.19  0.000000                                   0.000000  -0.000  -0.000   0.000
 106     14.4192919   116300.     85.98  0.000000                                   0.000000  -0.000  -0.000   0.000
 107     14.4431232   116492.     85.84  0.002594  -0.000000   0.000000  -1.000000  0.000000   0.000   0.000   0.000
 108     14.5061846   117001.     85.47  0.000269   0.000000  -0.000000  -1.000000  0.000000   0.000   0.000   0.000
 109     14.5522096   117372.     85.20  0.000000                                   0.000000  -0.000  -0.000  -0.000
 110     14.6979796   118548.     84.35  0.018351   0.945091  -0.326807   0.000000  0.000000   0.000  -0.000  -0.000
 111     14.7217116   118739.     84.22  0.000000                                   0.000000  -0.000  -0.000   0.000
 112     14.7408224   118893.     84.11  0.065978   0.000000  -0.000000  -1.000000  0.000000   0.000   0.000   0.000
 113     14.8243884   119567.     83.64  0.009913   0.000000  -0.000000  -1.000000  0.000000   0.000   0.000   0.000
 114     14.9001075   120178.     83.21  0.074536   0.874396  -0.485213   0.000000  0.000000   0.000  -0.000  -0.000
 115     14.9619407   120676.     82.87  0.019813  -0.048493   0.998824   0.000000  0.000000  -0.000  -0.000   0.000
 116     15.0720417   121565.     82.26  0.021186  -0.000000   0.000000  -1.000000  0.000000  -0.000  -0.000  -0.000
 117     15.0747897   121587.     82.25  0.000000                                   0.000000  -0.000  -0.000   0.000
 118     15.2417241   122933.     81.35  0.000000                                   0.000000  -0.000  -0.000  -0.000
 119     15.2573034   123059.     81.26  0.181551   0.055915   0.998436   0.000000  0.000000   0.000  -0.000   0.000
 120     15.2913002   123333.     81.08  0.000000                                   0.000000  -0.000  -0.000  -0.000
 121     15.3250222   123605.     80.90  0.000000                                   0.000000  -0.000  -0.000   0.000
 122     15.3372797   123704.     80.84  0.011814   0.000000   0.000000   1.000000  0.000000   0.000  -0.000   0.000
 123     15.3960718   124178.     80.53  0.000688   0.000000  -0.000000   1.000000  0.000000  -0.000  -0.000   0.000
 124     15.3962396   124179.     80.53  0.000000                                   0.000000  -0.000   0.000  -0.000
 125     15.4551993   124655.     80.22  0.000000                                   0.000000   0.000   0.000  -0.000
 126     15.6171592   125961.     79.39  0.010233   0.000000  -0.000000   1.000000  0.000000   0.000   0.000   0.000
 127     15.6546808   126264.     79.20  0.006937  -0.705233  -0.708976  -0.000000  0.000000   0.000  -0.000   0.000
 128     15.6774840   126448.     79.08  0.390855   0.382179  -0.924088  -0.000000  0.000000   0.000   0.000   0.000
 129     15.6891226   126542.     79.03  0.000000                                   0.000000   0.000   0.000  -0.000
 130     15.7913992   127367.     78.51  0.000000                                   0.000000  -0.000  -0.000   0.000
 131     15.8202105   127599.     78.37  0.194329  -0.335680   0.941976   0.000000  0.000000  -0.000  -0.000   0.000
 132     15.8283995   127665.     78.33  0.002251  -0.000000   0.000000  -1.000000  0.000000   0.000   0.000  -0.000
 133     15.8402540   127761.     78.27  0.000000                                   0.000000  -0.000   0.000   0.000
 134     15.8639451   127952.     78.15  0.272504   0.234390  -0.972143   0.000000  0.000000   0.000  -0.000   0.000
 135     16.0053349   129092.     77.46  0.000000                                   0.000000   0.000  -0.000   0.000
 136     16.0334650   129319.     77.33  0.000000                                   0.000000  -0.000  -0.000   0.000
 137     16.0512255   129462.     77.24  0.000000                                   0.000000  -0.000  -0.000   0.000
 138     16.1174154   129996.     76.93  0.000000                                   0.000000  -0.000  -0.000   0.000
 139     16.2436330   131014.     76.33  0.000000                                   0.000000  -0.000   0.000  -0.000
 140     16.2460430   131034.     76.32  0.001581  -0.000000  -0.000000  -1.000000  0.000000   0.000   0.000   0.000
 141     16.2524633   131085.     76.29  0.165200  -0.585647  -0.810566   0.000000  0.000000   0.000   0.000   0.000
 142     16.3061015   131518.     76.04  0.000000                                   0.000000  -0.000  -0.000  -0.000
 143     16.3337395   131741.     75.91  0.000000                                   0.000000   0.000  -0.000   0.000
 144     16.3756503   132079.     75.71  0.267675  -0.706647   0.707566   0.000000  0.000000   0.000  -0.000   0.000
 145     16.4897638   132999.     75.19  0.032667   0.671667   0.740853   0.000000  0.000000   0.000   0.000   0.000
 146     16.5229134   133267.     75.04  0.000000                                   0.000000   0.000   0.000   0.000
 147     16.5307629   133330.     75.00  0.146609  -0.440088  -0.897955   0.000000  0.000000   0.000  -0.000  -0.000
 148     16.6070658   133945.     74.66  0.003706   0.821452  -0.570278  -0.000000  0.000000  -0.000  -0.000  -0.000
 149     16.6175210   134030.     74.61  0.000000                                   0.000000   0.000   0.000   0.000
 150     16.7728249   135282.     73.92  0.049637   0.343207   0.939260   0.000000  0.000000   0.000   0.000   0.000
 151     16.8019809   135517.     73.79  0.000000                                   0.000000   0.000  -0.000   0.000
 152     16.9050434   136349.     73.34  1.063216  -0.978218  -0.207579   0.000000  0.000000   0.000  -0.000   0.000
 153     17.0281869   137342.     72.81  0.119208   0.000000  -0.000000   1.000000  0.000000  -0.000  -0.000  -0.000
 154     17.0326879   137378.     72.79  0.000000                                   0.000000   0.000  -0.000   0.000
 155     17.0448265   137476.     72.74  0.000000                                   0.000000  -0.000  -0.000   0.000
 156     17.1274992   138143.     72.39  0.010367   0.735432   0.677599  -0.000000  0.000000   0.000  -0.000   0.000
 157     17.1447884   138282.     72.32  0.276433  -0.986248   0.165274   0.000000  0.000000  -0.000  -0.000   0.000
 158     17.1477851   138307.     72.30  0.000000                                   0.000000   0.000  -0.000  -0.000
 159     17.1714977   138498.     72.20  0.000000                                   0.000000   0.000   0.000   0.000
 160     17.2534430   139159.     71.86  0.000000                                   0.000000  -0.000  -0.000   0.000
[...]
    Config     394   0.10365691  0.01074475
    Config     400   0.08960298  0.00802869
    Config     405   0.27384779  0.07499261
    Config     410   0.13875720  0.01925356
    Config     411  -0.05525961  0.00305362
    Config     415  -0.48703207  0.23720023
    Config     416   0.08683351  0.00754006
    Config     418  -0.12817309  0.01642834
    Config     419   0.53972249  0.29130037
    Config     421   0.55893479  0.31240810
    Config     427   0.09930171  0.00986083
    Config     437   0.04204425  0.00176772
Total percent printed            0.99257890
  
State  420 42.0256     CI coeff  CI percent
    Config     369   0.04948916  0.00244918
    Config     392   0.10396564  0.01080885
    Config     396   0.04060629  0.00164887
    Config     406  -0.08266640  0.00683373
    Config     409  -0.12743850  0.01624057
    Config     412   0.09365949  0.00877210
    Config     413  -0.10739679  0.01153407
    Config     420   0.91963079  0.84572079
    Config     422   0.06071347  0.00368613
    Config     424  -0.04624204  0.00213833
    Config     429   0.22629340  0.05120870
    Config     434   0.05341956  0.00285365
    Config     436  -0.08188900  0.00670581
    Config     438  -0.10184447  0.01037230
    Config     442   0.04946485  0.00244677
Total percent printed            0.98341985
  
State  421 42.2581     CI coeff  CI percent
    Config     404   0.32129048  0.10322757
    Config     410   0.04496014  0.00202141
    Config     411  -0.05534796  0.00306340
    Config     415   0.07001052  0.00490147
    Config     418   0.08628029  0.00744429
    Config     423  -0.83869650  0.70341183
    Config     425  -0.24435448  0.05970911
    Config     432  -0.31912166  0.10183864
    Config     433  -0.07765249  0.00602991
Total percent printed            0.99164763
  
State  422 42.3115     CI coeff  CI percent
    Config     403  -0.34315908  0.11775815
    Config     406   0.06604768  0.00436230
    Config     414   0.05127220  0.00262884
    Config     417  -0.05448525  0.00296864
    Config     420   0.05246232  0.00275230
    Config     424   0.85828986  0.73666148
    Config     426   0.07022553  0.00493163
    Config     431   0.34646499  0.12003799
Total percent printed            0.99210132
  
State  423 42.6141     CI coeff  CI percent
    Config     382  -0.06377519  0.00406728
    Config     404   0.14955129  0.02236559
    Config     405  -0.04417508  0.00195144
    Config     408  -0.16268813  0.02646743
    Config     410  -0.07011620  0.00491628
    Config     415  -0.05867728  0.00344302
    Config     416  -0.08707576  0.00758219
    Config     418  -0.13302734  0.01769627
    Config     419  -0.11255377  0.01266835
    Config     423  -0.20062018  0.04024846
    Config     425   0.87824046  0.77130630
    Config     427   0.08385024  0.00703086
    Config     432  -0.13976405  0.01953399
    Config     433   0.22171010  0.04915537
    Config     437   0.04479029  0.00200617
Total percent printed            0.99043900
  
State  424 42.7115     CI coeff  CI percent
    Config     391  -0.06570748  0.00431747
    Config     401   0.05544759  0.00307444
    Config     407  -0.26798588  0.07181643
    Config     412  -0.04664559  0.00217581
    Config     413  -0.06723526  0.00452058
    Config     414   0.28951948  0.08382153
    Config     417  -0.33534006  0.11245296
    Config     422  -0.83405913  0.69565464
    Config     424  -0.07840245  0.00614694
    Config     429   0.09433649  0.00889937
    Config     439   0.04918381  0.00241905
Total percent printed            0.99529922
  
State  425 42.7276     CI coeff  CI percent
    Config     394  -0.07945315  0.00631280
    Config     405   0.12232845  0.01496425
    Config     411   0.36535427  0.13348374
    Config     415  -0.14628657  0.02139976
    Config     419   0.57024863  0.32518350
    Config     421  -0.69210379  0.47900766
    Config     423  -0.07303797  0.00533454
    Config     425   0.06335633  0.00401402
    Config     428   0.04400563  0.00193650
Total percent printed            0.99163678
  
State  426 42.9968     CI coeff  CI percent
    Config     381   0.04367190  0.00190723
    Config     384  -0.04767800  0.00227319
    Config     396  -0.05603174  0.00313956
    Config     402  -0.06695276  0.00448267
    Config     403   0.05093818  0.00259470
    Config     406  -0.15878112  0.02521144
    Config     412   0.08322889  0.00692705
    Config     417  -0.05447616  0.00296765
    Config     420  -0.04615094  0.00212991
    Config     422   0.06065231  0.00367870
    Config     424  -0.04690152  0.00219975
    Config     426   0.88245397  0.77872502
    Config     430   0.30413127  0.09249583
    Config     434  -0.23052535  0.05314194
Total percent printed            0.98187464
  
State  427 43.1976     CI coeff  CI percent
    Config     386   0.09029650  0.00815346
    Config     408  -0.12754278  0.01626716
    Config     416   0.11720991  0.01373816
    Config     418   0.08896748  0.00791521
    Config     419   0.10316653  0.01064333
    Config     421   0.08104109  0.00656766
    Config     427  -0.90028948  0.81052115
    Config     428  -0.05929923  0.00351640
    Config     433   0.29668736  0.08802339
    Config     435   0.09764416  0.00953438
    Config     437  -0.10536303  0.01110137
    Config     441  -0.04830732  0.00233360
Total percent printed            0.98831527
  
State  428 43.6713     CI coeff  CI percent
    Config     376  -0.04525966  0.00204844
    Config     397   0.08458309  0.00715430
    Config     415  -0.04581355  0.00209888
    Config     418   0.17262323  0.02979878
    Config     427   0.09265333  0.00858464
    Config     428  -0.90010337  0.81018608
    Config     435   0.29956007  0.08973624
    Config     437   0.14084362  0.01983693
    Config     440   0.12210473  0.01490956
Total percent printed            0.98435385
  
State  429 43.9108     CI coeff  CI percent
    Config     392   0.06015441  0.00361855
    Config     409  -0.04637556  0.00215069
    Config     412   0.09566467  0.00915173
    Config     420   0.21221436  0.04503493
    Config     422  -0.10046775  0.01009377
    Config     429  -0.83066910  0.69001115
    Config     430  -0.24268302  0.05889505
    Config     431  -0.04284097  0.00183535
    Config     434  -0.36195918  0.13101445
    Config     436   0.06821705  0.00465357
    Config     438  -0.10703031  0.01145549
    Config     439  -0.12485942  0.01558987
    Config     442   0.04064371  0.00165191
Total percent printed            0.98515651
  
State  430 44.3670     CI coeff  CI percent
    Config     392  -0.04542522  0.00206345
    Config     406  -0.10215892  0.01043644
    Config     412  -0.05910098  0.00349293
    Config     420  -0.05809474  0.00337500
    Config     424   0.09932714  0.00986588
    Config     426   0.16965845  0.02878399
    Config     429   0.34286363  0.11755547
    Config     430  -0.76698013  0.58825852
    Config     431  -0.35680835  0.12731220
    Config     434  -0.29887978  0.08932913
    Config     439   0.09014432  0.00812600
Total percent printed            0.98859899
  
State  431 44.8187     CI coeff  CI percent
    Config     397  -0.04765440  0.00227094
    Config     408   0.08315373  0.00691454
    Config     416  -0.06780969  0.00459815
    Config     418  -0.06175160  0.00381326
    Config     419  -0.05008374  0.00250838
    Config     421   0.04039620  0.00163185
    Config     423  -0.17393221  0.03025242
    Config     425  -0.12705498  0.01614297
    Config     427   0.11582979  0.01341654
    Config     428   0.22583698  0.05100234
    Config     432   0.42968993  0.18463344
    Config     433   0.41222570  0.16993003
    Config     435   0.54307583  0.29493135
    Config     437   0.45237184  0.20464028
    Config     440  -0.05699811  0.00324878
    Config     441  -0.05071236  0.00257174
Total percent printed            0.99250703
  
State  432 44.9729     CI coeff  CI percent
    Config     397   0.05738292  0.00329280
    Config     416   0.09480358  0.00898772
    Config     423  -0.26358091  0.06947490
    Config     427   0.08392158  0.00704283
    Config     428  -0.20298452  0.04120272
    Config     432   0.67372846  0.45391004
    Config     433   0.24089495  0.05803038
    Config     435  -0.56285583  0.31680668
    Config     437  -0.16872950  0.02846964
    Config     440   0.05190880  0.00269452
    Config     441   0.07660037  0.00586762
Total percent printed            0.99577985
  
State  433 45.0446     CI coeff  CI percent
    Config     412   0.05204498  0.00270868
    Config     422  -0.06557403  0.00429995
    Config     424   0.32136130  0.10327309
    Config     426   0.05860817  0.00343492
    Config     429  -0.15456094  0.02388908
    Config     430   0.20300116  0.04120947
    Config     431  -0.79508751  0.63216414
    Config     434   0.34685039  0.12030520
    Config     436  -0.17536792  0.03075391
    Config     438   0.10322280  0.01065495
    Config     439  -0.15651427  0.02449672
Total percent printed            0.99719010
  
State  434 45.1294     CI coeff  CI percent
    Config     409   0.06804881  0.00463064
    Config     424  -0.09760112  0.00952598
    Config     429  -0.06671974  0.00445152
    Config     430  -0.10590501  0.01121587
    Config     431   0.22072871  0.04872116
    Config     436  -0.86256144  0.74401223
    Config     438   0.36033665  0.12984250
    Config     439  -0.18661272  0.03482431
Total percent printed            0.98722422
  
State  435 45.3187     CI coeff  CI percent
    Config     408  -0.07232751  0.00523127
    Config     416  -0.05941343  0.00352996
    Config     423  -0.17236572  0.02970994
    Config     425   0.22996123  0.05288217
    Config     427  -0.17207663  0.02961037
    Config     428   0.07701929  0.00593197
    Config     432   0.47371480  0.22440571
    Config     433  -0.73437074  0.53930038
    Config     435   0.29251070  0.08556251
    Config     437  -0.13206932  0.01744231
    Config     441  -0.04828600  0.00233154
Total percent printed            0.99593811
  
State  436 45.4416     CI coeff  CI percent
    Config     412   0.09277413  0.00860704
    Config     424  -0.10069131  0.01013874
    Config     426   0.33871664  0.11472896
    Config     429  -0.13357526  0.01784235
    Config     430  -0.42450861  0.18020756
    Config     431   0.23190648  0.05378061
    Config     434   0.72721887  0.52884728
    Config     436   0.18968584  0.03598072
    Config     439  -0.20905300  0.04370316
Total percent printed            0.99383642
  
State  437 46.1948     CI coeff  CI percent
    Config     416   0.10334866  0.01068095
    Config     421  -0.04371290  0.00191082
    Config     425   0.04931728  0.00243219
    Config     427  -0.22884109  0.05236824
    Config     433  -0.26369179  0.06953336
    Config     435  -0.36845146  0.13575648
    Config     437   0.81412948  0.66280681
    Config     440  -0.07272645  0.00528914
    Config     441   0.23157694  0.05362788
Total percent printed            0.99440586
  
State  438 46.4631     CI coeff  CI percent
    Config     409  -0.08122433  0.00659739
    Config     420   0.10659823  0.01136318
    Config     429   0.08677686  0.00753022
    Config     430   0.06096920  0.00371724
    Config     434  -0.19584193  0.03835406
    Config     436   0.38734563  0.15003664
    Config     438   0.75118210  0.56427455
    Config     439  -0.42984046  0.18476282
    Config     442  -0.17091025  0.02921031
Total percent printed            0.99584643
  
State  439 47.3285     CI coeff  CI percent
    Config     420   0.10893096  0.01186595
    Config     426   0.04318928  0.00186531
    Config     429  -0.21681587  0.04700912
    Config     434   0.13862420  0.01921667
    Config     438   0.44325794  0.19647760
    Config     439   0.80759972  0.65221731
    Config     442  -0.25974571  0.06746783
Total percent printed            0.99611980
  
State  440 47.8392     CI coeff  CI percent
    Config     418  -0.05457361  0.00297828
    Config     428   0.09725950  0.00945941
    Config     433  -0.04814300  0.00231775
    Config     435  -0.11289510  0.01274530
    Config     437   0.16471080  0.02712965
    Config     440   0.78124921  0.61035033
    Config     441  -0.57533354  0.33100868
Total percent printed            0.99598940
  
State  441 49.2458     CI coeff  CI percent
    Config     428  -0.09968561  0.00993722
    Config     435  -0.15893644  0.02526079
    Config     437   0.09054078  0.00819763
    Config     440  -0.59786517  0.35744276
    Config     441  -0.77238944  0.59658545
Total percent printed            0.99742386
  
State  442 50.0761     CI coeff  CI percent
    Config     436   0.09362898  0.00876638
    Config     438   0.26163371  0.06845220
    Config     439   0.15776066  0.02488843
    Config     442   0.94668903  0.89622013
Total percent printed            0.99832714
  

 -------------------------------------------------------------------------------
 INDO CIS CHARGE=0




     1SCF WAS SPECIFIED, SO BFGS WAS NOT USED                 
     SCF FIELD WAS ACHIEVED                                   


                              INDO CALCULATION
                                                       MOPAC2016 (Version: 20.173L)
                                                       Mon Jun 29 13:00:51 2020




          FINAL HEAT OF FORMATION =     -30370.74200 KCAL/MOL = -127071.18454 KJ/MOL


          TOTAL ENERGY            =      -1398.87867 EV
          ELECTRONIC ENERGY       =      -4434.97073 EV  POINT GROUP:     C2h 
          CORE-CORE REPULSION     =       3036.09207 EV
          COSMO AREA              =        178.91 SQUARE ANGSTROMS
          COSMO VOLUME            =        165.66 CUBIC ANGSTROMS

          IONIZATION POTENTIAL    =          7.425806 EV
          HOMO LUMO ENERGIES (EV) =         -7.426 -0.455
          NO. OF FILLED LEVELS    =         21
          MOLECULAR WEIGHT        =        106.1670

          MOLECULAR DIMENSIONS (Angstroms)

            Atom       Atom       Distance
            H    18    H     9    10.50130
            H    17    H    10     3.17092
            C     1    C     2     0.00000


          SCF CALCULATIONS        =          1
 
          WALL-CLOCK TIME         =          2.348 SECONDS
          COMPUTATION TIME        =          3.905 SECONDS




   ATOM   CHEMICAL          X               Y               Z
  NUMBER   SYMBOL      (ANGSTROMS)     (ANGSTROMS)     (ANGSTROMS)
 
     1       C          0.13642800  *   4.31261200  *   0.00000000  *
     2       C          0.65084500  *   3.07095700  *   0.00000000  *
     3       C         -0.13642800  *   1.85596900  *   0.00000000  *
     4       C          0.38926300  *   0.60631000  *   0.00000000  *
     5       C         -0.38926300  *  -0.60631000  *   0.00000000  *
     6       C          0.13642800  *  -1.85596900  *   0.00000000  *
     7       C         -0.65084500  *  -3.07095700  *   0.00000000  *
     8       C         -0.13642800  *  -4.31261200  *   0.00000000  *
     9       H          0.77042500  *   5.19381900  *   0.00000000  *
    10       H         -0.93776100  *   4.48341300  *   0.00000000  *
    11       H          1.73423700  *   2.94537900  *   0.00000000  *
    12       H         -1.22106200  *   1.97279000  *   0.00000000  *
    13       H          1.47457700  *   0.49428800  *   0.00000000  *
    14       H         -1.47457700  *  -0.49428800  *   0.00000000  *
    15       H          1.22106200  *  -1.97279000  *   0.00000000  *
    16       H         -1.73423700  *  -2.94537900  *   0.00000000  *
    17       H          0.93776100  *  -4.48341300  *   0.00000000  *
    18       H         -0.77042500  *  -5.19381900  *   0.00000000  *

                             CARTESIAN COORDINATES

   1    C        0.136428000     4.312612000     0.000000000
   2    C        0.650845000     3.070957000     0.000000000
   3    C       -0.136428000     1.855969000     0.000000000
   4    C        0.389263000     0.606310000     0.000000000
   5    C       -0.389263000    -0.606310000     0.000000000
   6    C        0.136428000    -1.855969000     0.000000000
   7    C       -0.650845000    -3.070957000     0.000000000
   8    C       -0.136428000    -4.312612000     0.000000000
   9    H        0.770425000     5.193819000     0.000000000
  10    H       -0.937761000     4.483413000     0.000000000
  11    H        1.734237000     2.945379000     0.000000000
  12    H       -1.221062000     1.972790000     0.000000000
  13    H        1.474577000     0.494288000     0.000000000
  14    H       -1.474577000    -0.494288000     0.000000000
  15    H        1.221062000    -1.972790000     0.000000000
  16    H       -1.734237000    -2.945379000     0.000000000
  17    H        0.937761000    -4.483413000     0.000000000
  18    H       -0.770425000    -5.193819000     0.000000000


           Empirical Formula: C8 H10  =    18 atoms



      MOLECULAR POINT GROUP   :   C2h 


                  EIGENVALUES  
 -40.18409 -38.11453 -35.02602 -31.26250 -26.60496 -24.72015 -22.86493 -22.65749
 -20.09911 -18.94038 -17.37719 -15.84646 -14.72784 -13.99746 -13.28861 -13.16947
 -12.70067 -12.63575 -11.37526  -9.49409  -7.42581  -0.45492   1.09247   2.22090
   2.85863   3.02519   3.53446   4.03389   4.45343   4.82278   5.36732   5.94660
   6.34063   7.61307   7.63118   8.34458   8.72193   9.01224   9.66639  10.57406
  12.22329  13.98093


              NET ATOMIC CHARGES AND DIPOLE CONTRIBUTIONS

  ATOM NO.   TYPE          CHARGE      No. of ELECS.   s-Pop       p-Pop       
    1          C          -0.068530        4.0685     1.11232     2.95621
    2          C          -0.014271        4.0143     1.08070     2.93357
    3          C          -0.024494        4.0245     1.08495     2.93954
    4          C          -0.023249        4.0232     1.08499     2.93826
    5          C          -0.023249        4.0232     1.08499     2.93826
    6          C          -0.024494        4.0245     1.08495     2.93954
    7          C          -0.014271        4.0143     1.08070     2.93357
    8          C          -0.068530        4.0685     1.11232     2.95621
    9          H           0.023504        0.9765     0.97650
   10          H           0.026372        0.9736     0.97363
   11          H           0.026948        0.9731     0.97305
   12          H           0.027216        0.9728     0.97278
   13          H           0.026504        0.9735     0.97350
   14          H           0.026504        0.9735     0.97350
   15          H           0.027216        0.9728     0.97278
   16          H           0.026948        0.9731     0.97305
   17          H           0.026372        0.9736     0.97363
   18          H           0.023504        0.9765     0.97650
 DIPOLE           X         Y         Z       TOTAL
 POINT-CHG.     0.000    -0.000     0.000     0.000
 HYBRID         0.000     0.000    -0.000     0.000
 SUM            0.000    -0.000    -0.000     0.000


          ATOMIC ORBITAL ELECTRON POPULATIONS

     Atom    s        px        py        pz   
    1  C   1.11232   0.96406   0.97212   1.02003
    2  C   1.08070   0.96307   0.98799   0.98251
    3  C   1.08495   0.96147   0.97725   1.00082
    4  C   1.08499   0.96224   0.97939   0.99663
    5  C   1.08499   0.96224   0.97939   0.99663
    6  C   1.08495   0.96147   0.97725   1.00082
    7  C   1.08070   0.96307   0.98799   0.98251
    8  C   1.11232   0.96406   0.97212   1.02003
    9  H   0.97650
   10  H   0.97363
   11  H   0.97305
   12  H   0.97278
   13  H   0.97350
   14  H   0.97350
   15  H   0.97278
   16  H   0.97305
   17  H   0.97363
   18  H   0.97650

 **********************
 *                    *
 * JOB ENDED NORMALLY *
 *                    *
 **********************



 TOTAL JOB TIME:             2.44 SECONDS

 == MOPAC DONE ==


          MOPAC Job: "poly_c8.mop" ended normally on Jun 29, 2020, at 13:00.

