 *******************************************************************************
 ** Site#:    0         For non-commercial use only    Version 20.173L 64BITS **
 *******************************************************************************
 ** Cite this program as: MOPAC2016, Version: 20.173L, James J. P. Stewart,   **
 ** Stewart Computational Chemistry, web-site: HTTP://OpenMOPAC.net.          **
 *******************************************************************************
 **                                                                           **
 **                                MOPAC2016                                  **
 **                                                                           **
 *******************************************************************************

                              INDO CALCULATION RESULTS

 *******************************************************************************
 *  CALCULATION DONE:                                Tue Jul  7 10:19:07 2020  *
 *  INDO       - The INDO Hamiltonian to be used
 *  MRCI       -  Use multi-reference CI (specify ref dets using C.A.S.)
 *  C.I.=(N,M) - 12 DOUBLY FILLED LEVELS USED IN A C.I. INVOLVING 24 M.O.'S
 *  T=         - A TIME OF 172800.0 SECONDS REQUESTED
 *  DUMP=N     - RESTART FILE WRITTEN EVERY 7200.0 SECONDS REQUESTED
 *******************************************************************************
INDO MRCI C.I.=(24,12)


   ATOM   CHEMICAL          X               Y               Z
  NUMBER   SYMBOL      (ANGSTROMS)     (ANGSTROMS)     (ANGSTROMS)
 
     1       C          0.13642800  *   4.31261200  *   0.00000000  *
     2       C          0.65084500  *   3.07095700  *   0.00000000  *
     3       C         -0.13642800  *   1.85596900  *   0.00000000  *
     4       C          0.38926300  *   0.60631000  *   0.00000000  *
     5       C         -0.38926300  *  -0.60631000  *   0.00000000  *
     6       C          0.13642800  *  -1.85596900  *   0.00000000  *
     7       C         -0.65084500  *  -3.07095700  *   0.00000000  *
     8       C         -0.13642800  *  -4.31261200  *   0.00000000  *
     9       H          0.77042500  *   5.19381900  *   0.00000000  *
    10       H         -0.93776100  *   4.48341300  *   0.00000000  *
    11       H          1.73423700  *   2.94537900  *   0.00000000  *
    12       H         -1.22106200  *   1.97279000  *   0.00000000  *
    13       H          1.47457700  *   0.49428800  *   0.00000000  *
    14       H         -1.47457700  *  -0.49428800  *   0.00000000  *
    15       H          1.22106200  *  -1.97279000  *   0.00000000  *
    16       H         -1.73423700  *  -2.94537900  *   0.00000000  *
    17       H          0.93776100  *  -4.48341300  *   0.00000000  *
    18       H         -0.77042500  *  -5.19381900  *   0.00000000  *
 


          CARTESIAN COORDINATES 

    NO.       ATOM           X           Y           Z

     1         C          0.1364      4.3126      0.0000
     2         C          0.6508      3.0710      0.0000
     3         C         -0.1364      1.8560      0.0000
     4         C          0.3893      0.6063      0.0000
     5         C         -0.3893     -0.6063      0.0000
     6         C          0.1364     -1.8560      0.0000
     7         C         -0.6508     -3.0710      0.0000
     8         C         -0.1364     -4.3126      0.0000
     9         H          0.7704      5.1938      0.0000
    10         H         -0.9378      4.4834      0.0000
    11         H          1.7342      2.9454      0.0000
    12         H         -1.2211      1.9728      0.0000
    13         H          1.4746      0.4943      0.0000
    14         H         -1.4746     -0.4943      0.0000
    15         H          1.2211     -1.9728      0.0000
    16         H         -1.7342     -2.9454      0.0000
    17         H          0.9378     -4.4834      0.0000
    18         H         -0.7704     -5.1938      0.0000

           Empirical Formula: C8 H10  =    18 atoms



      MOLECULAR POINT GROUP   :   C2h 


      RHF CALCULATION, NO. OF DOUBLY OCCUPIED LEVELS = 21

 WARNING: INDO only performs single-point calculations

 Summary of symmetry occupancy in each shell:

 SHELL     
    1   21
    v   21
 TOTAL  42




    ROOT NO.    1           2           3           4           5           6

           -40.18409   -38.11453   -35.02602   -31.26250   -26.60496   -24.72015
  
  
  S  C   1   0.15648     0.28333     0.35735    -0.36108     0.32421    -0.08539
 PX  C   1   0.01124     0.02285     0.03360    -0.03737     0.01539     0.11218
 PY  C   1  -0.06793    -0.10827    -0.09771     0.02574     0.11501    -0.02805
 PZ  C   1   0.00000     0.00000     0.00000    -0.00000    -0.00000     0.00000
  
  S  C   2   0.27046     0.40049     0.32959    -0.11198    -0.14956     0.16488
 PX  C   2  -0.04418    -0.06608    -0.05212     0.00937     0.02481     0.17555
 PY  C   2  -0.04808    -0.01547     0.11130    -0.24420     0.26965    -0.04584
 PZ  C   2  -0.00000    -0.00000    -0.00000     0.00000    -0.00000    -0.00000
  
  S  C   3   0.37049     0.35027    -0.01626     0.30834    -0.24158    -0.17784
 PX  C   3   0.04964     0.06133     0.01718     0.05238    -0.08997     0.25358
 PY  C   3  -0.04763     0.06072     0.21120    -0.14321    -0.16550     0.03418
 PZ  C   3  -0.00000    -0.00000    -0.00000     0.00000    -0.00000     0.00000
  
  S  C   4   0.41936     0.14747    -0.32819     0.23600     0.19101     0.15320
 PX  C   4  -0.06039    -0.00978     0.06716    -0.02569    -0.07460     0.28623
 PY  C   4  -0.00001     0.13938     0.09466     0.21568    -0.24246    -0.06154
 PZ  C   4  -0.00000    -0.00000    -0.00000     0.00000     0.00000    -0.00000
  
  S  C   5   0.41936    -0.14747    -0.32819    -0.23600     0.19101    -0.15320
 PX  C   5   0.06039    -0.00978    -0.06716    -0.02569     0.07460     0.28623
 PY  C   5   0.00001     0.13938    -0.09466     0.21568     0.24246    -0.06154
 PZ  C   5  -0.00000    -0.00000     0.00000     0.00000    -0.00000    -0.00000
  
  S  C   6   0.37049    -0.35027    -0.01626    -0.30834    -0.24158     0.17784
 PX  C   6  -0.04964     0.06133    -0.01718     0.05238     0.08997     0.25358
 PY  C   6   0.04763     0.06072    -0.21120    -0.14321     0.16550     0.03418
 PZ  C   6   0.00000    -0.00000    -0.00000     0.00000    -0.00000    -0.00000
  
  S  C   7   0.27046    -0.40049     0.32959     0.11198    -0.14956    -0.16488
 PX  C   7   0.04418    -0.06608     0.05212     0.00937    -0.02481     0.17555
 PY  C   7   0.04808    -0.01547    -0.11130    -0.24420    -0.26965    -0.04584
 PZ  C   7  -0.00000    -0.00000    -0.00000     0.00000     0.00000     0.00000
  
  S  C   8   0.15648    -0.28333     0.35735     0.36108     0.32421     0.08539
 PX  C   8  -0.01124     0.02285    -0.03360    -0.03737    -0.01539     0.11218
 PY  C   8   0.06793    -0.10827     0.09771     0.02574    -0.11501    -0.02805
 PZ  C   8  -0.00000    -0.00000    -0.00000     0.00000     0.00000     0.00000
  
  S  H   9   0.04984     0.09737     0.14133    -0.17772     0.22426    -0.01488
  
  S  H  10   0.06514     0.11652     0.14587    -0.15114     0.16175    -0.12539
  
  S  H  11   0.11160     0.15870     0.12126    -0.03130    -0.07732     0.21167
  
  S  H  12   0.15155     0.13949    -0.00447     0.10712    -0.07022    -0.26653
  
  S  H  13   0.17234     0.05808    -0.12480     0.08496     0.06068     0.28488
  
  S  H  14   0.17234    -0.05808    -0.12480    -0.08496     0.06068    -0.28488
  
  S  H  15   0.15155    -0.13949    -0.00447    -0.10712    -0.07022     0.26653
  
  S  H  16   0.11160    -0.15870     0.12126     0.03130    -0.07732    -0.21167
  
  S  H  17   0.06514    -0.11652     0.14587     0.15114     0.16175     0.12539
  
  S  H  18   0.04984    -0.09737     0.14133     0.17772     0.22426     0.01488




    ROOT NO.    7           8           9          10          11          12

           -22.86493   -22.65749   -20.09911   -18.94038   -17.37719   -15.84646
  
  
  S  C   1  -0.07562    -0.23705    -0.02480     0.10068     0.01151     0.01363
 PX  C   1   0.21116     0.04319     0.27993    -0.13557    -0.27147     0.21896
 PY  C   1  -0.01551    -0.25599     0.07584     0.32630    -0.20942    -0.29539
 PZ  C   1   0.00000     0.00000     0.00000     0.00000     0.00000     0.00000
  
  S  C   2   0.19185     0.24821     0.06141    -0.14065     0.05971    -0.02325
 PX  C   2   0.28382    -0.02994     0.29170     0.03471    -0.18850    -0.12255
 PY  C   2   0.02696    -0.07705     0.11388    -0.23179    -0.02433     0.36839
 PZ  C   2  -0.00000     0.00000    -0.00000    -0.00000     0.00000    -0.00000
  
  S  C   3  -0.21294     0.01821    -0.01737     0.06872    -0.16682    -0.01819
 PX  C   3   0.22498    -0.03711    -0.03020     0.22974     0.19393    -0.20748
 PY  C   3  -0.07009     0.28554    -0.24603    -0.07950     0.15061    -0.11756
 PZ  C   3   0.00000     0.00000     0.00000     0.00000     0.00000    -0.00000
  
  S  C   4   0.09379    -0.25985    -0.04828    -0.01801     0.10521     0.14836
 PX  C   4   0.09639    -0.07300    -0.25213     0.16565     0.16535     0.11645
 PY  C   4  -0.01308    -0.13446     0.13799     0.31780    -0.12959    -0.01640
 PZ  C   4   0.00000     0.00000     0.00000    -0.00000     0.00000     0.00000
  
  S  C   5   0.09379     0.25985     0.04828    -0.01801     0.10521    -0.14836
 PX  C   5  -0.09639    -0.07300    -0.25213    -0.16565    -0.16535     0.11645
 PY  C   5   0.01308    -0.13446     0.13799    -0.31780     0.12959    -0.01640
 PZ  C   5  -0.00000     0.00000    -0.00000    -0.00000     0.00000     0.00000
  
  S  C   6  -0.21294    -0.01821     0.01737     0.06872    -0.16682     0.01819
 PX  C   6  -0.22498    -0.03711    -0.03020    -0.22974    -0.19393    -0.20748
 PY  C   6   0.07009     0.28554    -0.24603     0.07950    -0.15061    -0.11756
 PZ  C   6   0.00000     0.00000     0.00000     0.00000     0.00000    -0.00000
  
  S  C   7   0.19185    -0.24821    -0.06141    -0.14065     0.05971     0.02325
 PX  C   7  -0.28382    -0.02994     0.29170    -0.03471     0.18850    -0.12255
 PY  C   7  -0.02696    -0.07705     0.11388     0.23179     0.02433     0.36839
 PZ  C   7  -0.00000    -0.00000    -0.00000    -0.00000    -0.00000    -0.00000
  
  S  C   8  -0.07562     0.23705     0.02480     0.10068     0.01151    -0.01363
 PX  C   8  -0.21116     0.04319     0.27993     0.13557     0.27147     0.21896
 PY  C   8   0.01551    -0.25599     0.07584    -0.32630     0.20942    -0.29539
 PZ  C   8  -0.00000    -0.00000     0.00000     0.00000    -0.00000    -0.00000
  
  S  H   9   0.03714    -0.24276     0.15315     0.19073    -0.26139    -0.08345
  
  S  H  10  -0.19074    -0.17451    -0.21011     0.18640     0.19289    -0.20822
  
  S  H  11   0.29545     0.10673     0.23039    -0.02260    -0.10971    -0.14662
  
  S  H  12  -0.27154     0.05636    -0.00683    -0.13661    -0.21668     0.14109
  
  S  H  13   0.11595    -0.17276    -0.21456     0.08614     0.18649     0.16906
  
  S  H  14   0.11595     0.17276     0.21456     0.08614     0.18649    -0.16906
  
  S  H  15  -0.27154    -0.05636     0.00683    -0.13661    -0.21668    -0.14109
  
  S  H  16   0.29545    -0.10673    -0.23039    -0.02260    -0.10971     0.14662
  
  S  H  17  -0.19074     0.17451     0.21011     0.18640     0.19289     0.20822
  
  S  H  18   0.03714     0.24276    -0.15315     0.19073    -0.26139     0.08345




    ROOT NO.   13          14          15          16          17          18

           -14.72784   -13.99746   -13.28861   -13.16947   -12.70067   -12.63575
  
  
  S  C   1  -0.03726     0.05019    -0.04638    -0.03796    -0.00000     0.01991
 PX  C   1   0.21046     0.29185     0.01309    -0.23235    -0.00000    -0.13241
 PY  C   1   0.26595    -0.11549     0.15296    -0.01376    -0.00000    -0.16933
 PZ  C   1  -0.00000     0.00000    -0.00000    -0.00000     0.19081    -0.00000
  
  S  C   2  -0.05266    -0.05149    -0.01620    -0.02141    -0.00000    -0.06253
 PX  C   2   0.01744    -0.27255     0.08024     0.32210     0.00000     0.19479
 PY  C   2  -0.15930     0.16609    -0.12780     0.06324     0.00000     0.24843
 PZ  C   2  -0.00000     0.00000    -0.00000    -0.00000     0.29744    -0.00000
  
  S  C   3   0.09996     0.03620    -0.05657    -0.05824    -0.00000    -0.02038
 PX  C   3  -0.20330     0.04586    -0.23079    -0.29021    -0.00000    -0.17833
 PY  C   3   0.22952    -0.02447     0.25902    -0.06842     0.00000    -0.27223
 PZ  C   3  -0.00000    -0.00000    -0.00000    -0.00000     0.40939    -0.00000
  
  S  C   4  -0.06281     0.00756    -0.05100     0.01810    -0.00000    -0.05054
 PX  C   4   0.17611     0.23917     0.32475     0.09283     0.00000     0.18948
 PY  C   4  -0.16490     0.18834    -0.21316    -0.06583    -0.00000     0.29060
 PZ  C   4  -0.00000    -0.00000    -0.00000    -0.00000     0.45554    -0.00000
  
  S  C   5   0.06281     0.00756    -0.05100    -0.01810    -0.00000    -0.05054
 PX  C   5   0.17611    -0.23917    -0.32475     0.09283    -0.00000    -0.18948
 PY  C   5  -0.16490    -0.18834     0.21316    -0.06583    -0.00000    -0.29060
 PZ  C   5  -0.00000    -0.00000    -0.00000    -0.00000     0.45554    -0.00000
  
  S  C   6  -0.09996     0.03620    -0.05657     0.05824    -0.00000    -0.02038
 PX  C   6  -0.20330    -0.04586     0.23079    -0.29021     0.00000     0.17833
 PY  C   6   0.22952     0.02447    -0.25902    -0.06842    -0.00000     0.27223
 PZ  C   6  -0.00000    -0.00000    -0.00000    -0.00000     0.40939    -0.00000
  
  S  C   7   0.05266    -0.05149    -0.01620     0.02141    -0.00000    -0.06253
 PX  C   7   0.01744     0.27255    -0.08024     0.32210    -0.00000    -0.19479
 PY  C   7  -0.15930    -0.16609     0.12780     0.06324    -0.00000    -0.24843
 PZ  C   7  -0.00000    -0.00000    -0.00000    -0.00000     0.29744    -0.00000
  
  S  C   8   0.03726     0.05019    -0.04638     0.03796    -0.00000     0.01991
 PX  C   8   0.21046    -0.29185    -0.01309    -0.23235    -0.00000     0.13241
 PY  C   8   0.26595     0.11549    -0.15296    -0.01376     0.00000     0.16933
 PZ  C   8  -0.00000     0.00000    -0.00000    -0.00000     0.19081     0.00000
  
  S  H   9   0.29142     0.10636     0.10595    -0.16832    -0.00000    -0.20740
  
  S  H  10  -0.16673    -0.25837    -0.00866     0.21332     0.00000     0.12880
  
  S  H  11   0.00827    -0.28737     0.09673     0.29381     0.00000     0.13513
  
  S  H  12   0.24463    -0.02606     0.22968     0.24199     0.00000     0.14895
  
  S  H  13   0.12783     0.19070     0.31746     0.10899     0.00000     0.14334
  
  S  H  14  -0.12783     0.19070     0.31746    -0.10899     0.00000     0.14334
  
  S  H  15  -0.24463    -0.02606     0.22968    -0.24199     0.00000     0.14895
  
  S  H  16  -0.00827    -0.28737     0.09673    -0.29381     0.00000     0.13513
  
  S  H  17   0.16673    -0.25837    -0.00866    -0.21332    -0.00000     0.12880
  
  S  H  18  -0.29142     0.10636     0.10595     0.16832     0.00000    -0.20740




    ROOT NO.   19          20          21          22          23          24

           -11.37526    -9.49409    -7.42581    -0.45492     1.09247     2.22090
  
  
  S  C   1  -0.00000    -0.00000    -0.00000     0.00000     0.00000     0.00000
 PX  C   1   0.00000    -0.00000     0.00000     0.00000     0.00000    -0.00000
 PY  C   1   0.00000    -0.00000     0.00000     0.00000     0.00000    -0.00000
 PZ  C   1   0.35343     0.44640    -0.38636    -0.38038     0.43610    -0.34588
  
  S  C   2  -0.00000    -0.00000     0.00000    -0.00000    -0.00000    -0.00000
 PX  C   2   0.00000     0.00000    -0.00000     0.00000    -0.00000    -0.00000
 PY  C   2  -0.00000     0.00000    -0.00000     0.00000     0.00000     0.00000
 PZ  C   2   0.45428     0.39984    -0.19152     0.20016    -0.40710     0.46000
  
  S  C   3  -0.00000     0.00000     0.00000     0.00000     0.00000     0.00000
 PX  C   3  -0.00000    -0.00000    -0.00000    -0.00000     0.00000     0.00000
 PY  C   3  -0.00000     0.00000     0.00000     0.00000    -0.00000    -0.00000
 PZ  C   3   0.37005    -0.09434     0.43234     0.43155    -0.09393    -0.37049
  
  S  C   4  -0.00000     0.00000    -0.00000    -0.00000    -0.00000    -0.00000
 PX  C   4   0.00000    -0.00000     0.00000     0.00000     0.00000     0.00000
 PY  C   4   0.00000    -0.00000    -0.00000    -0.00000    -0.00000    -0.00000
 PZ  C   4   0.17828    -0.36327     0.35655    -0.35919     0.36778     0.17749
  
  S  C   5  -0.00000    -0.00000     0.00000     0.00000     0.00000     0.00000
 PX  C   5  -0.00000     0.00000    -0.00000    -0.00000    -0.00000    -0.00000
 PY  C   5   0.00000    -0.00000     0.00000     0.00000     0.00000     0.00000
 PZ  C   5  -0.17828    -0.36327    -0.35655    -0.35919    -0.36778     0.17749
  
  S  C   6  -0.00000     0.00000    -0.00000     0.00000     0.00000     0.00000
 PX  C   6   0.00000    -0.00000    -0.00000    -0.00000    -0.00000    -0.00000
 PY  C   6   0.00000     0.00000    -0.00000    -0.00000    -0.00000    -0.00000
 PZ  C   6  -0.37005    -0.09434    -0.43234     0.43155     0.09393    -0.37049
  
  S  C   7  -0.00000     0.00000    -0.00000    -0.00000    -0.00000    -0.00000
 PX  C   7  -0.00000     0.00000     0.00000    -0.00000    -0.00000    -0.00000
 PY  C   7  -0.00000     0.00000     0.00000    -0.00000    -0.00000    -0.00000
 PZ  C   7  -0.45428     0.39984     0.19152     0.20016     0.40710     0.46000
  
  S  C   8  -0.00000     0.00000    -0.00000     0.00000     0.00000     0.00000
 PX  C   8   0.00000    -0.00000    -0.00000     0.00000     0.00000     0.00000
 PY  C   8   0.00000     0.00000     0.00000    -0.00000     0.00000    -0.00000
 PZ  C   8  -0.35343     0.44640     0.38636    -0.38038    -0.43610    -0.34588
  
  S  H   9  -0.00000    -0.00000     0.00000    -0.00000    -0.00000    -0.00000
  
  S  H  10   0.00000     0.00000    -0.00000    -0.00000    -0.00000    -0.00000
  
  S  H  11   0.00000     0.00000    -0.00000     0.00000     0.00000     0.00000
  
  S  H  12   0.00000    -0.00000    -0.00000    -0.00000    -0.00000    -0.00000
  
  S  H  13   0.00000    -0.00000     0.00000     0.00000     0.00000     0.00000
  
  S  H  14   0.00000    -0.00000     0.00000    -0.00000    -0.00000    -0.00000
  
  S  H  15   0.00000    -0.00000    -0.00000     0.00000    -0.00000    -0.00000
  
  S  H  16   0.00000    -0.00000     0.00000     0.00000     0.00000     0.00000
  
  S  H  17   0.00000     0.00000    -0.00000    -0.00000    -0.00000    -0.00000
  
  S  H  18  -0.00000     0.00000     0.00000    -0.00000    -0.00000     0.00000




    ROOT NO.   25          26          27          28          29          30

             2.85863     3.02519     3.53446     4.03389     4.45343     4.82278
  
  
  S  C   1   0.00000    -0.18230    -0.28555     0.31355     0.31396     0.26674
 PX  C   1  -0.00000    -0.02269    -0.01709    -0.00677    -0.03439    -0.05393
 PY  C   1  -0.00000     0.05470     0.05349    -0.01061     0.06222     0.14040
 PZ  C   1   0.18877     0.00000    -0.00000     0.00000     0.00000     0.00000
  
  S  C   2  -0.00000     0.27478     0.36092    -0.25558    -0.04286     0.15303
 PX  C   2   0.00000    -0.04516    -0.02465    -0.01818    -0.02380     0.03706
 PY  C   2   0.00000    -0.06426    -0.01505    -0.09192    -0.18116    -0.17972
 PZ  C   2  -0.30203    -0.00000    -0.00000     0.00000     0.00000    -0.00000
  
  S  C   3   0.00000    -0.34491    -0.30383    -0.02904    -0.28989    -0.23054
 PX  C   3   0.00000    -0.04364    -0.02652     0.02007     0.06036     0.07058
 PY  C   3   0.00000     0.02679    -0.09309     0.17413     0.06114    -0.12227
 PZ  C   3   0.40905    -0.00000    -0.00000    -0.00000    -0.00000     0.00000
  
  S  C   4  -0.00000     0.37870     0.11340     0.31825     0.19451    -0.17732
 PX  C   4   0.00000    -0.05115     0.00634     0.00802     0.04954    -0.04814
 PY  C   4  -0.00000    -0.01955     0.13162    -0.09963     0.13375     0.14959
 PZ  C   4  -0.45368     0.00000     0.00000     0.00000     0.00000    -0.00000
  
  S  C   5   0.00000    -0.37870     0.11340    -0.31825     0.19451     0.17732
 PX  C   5  -0.00000    -0.05115    -0.00634     0.00802    -0.04954    -0.04814
 PY  C   5   0.00000    -0.01955    -0.13162    -0.09963    -0.13375     0.14959
 PZ  C   5   0.45368    -0.00000    -0.00000    -0.00000    -0.00000     0.00000
  
  S  C   6   0.00000     0.34491    -0.30383     0.02904    -0.28989     0.23054
 PX  C   6   0.00000    -0.04364     0.02652     0.02007    -0.06036     0.07058
 PY  C   6  -0.00000     0.02679     0.09309     0.17413    -0.06114    -0.12227
 PZ  C   6  -0.40905    -0.00000    -0.00000    -0.00000    -0.00000     0.00000
  
  S  C   7  -0.00000    -0.27478     0.36092     0.25558    -0.04286    -0.15303
 PX  C   7  -0.00000    -0.04516     0.02465    -0.01818     0.02380     0.03706
 PY  C   7  -0.00000    -0.06426     0.01505    -0.09192     0.18116    -0.17972
 PZ  C   7   0.30203     0.00000     0.00000     0.00000     0.00000    -0.00000
  
  S  C   8   0.00000     0.18230    -0.28555    -0.31355     0.31396    -0.26674
 PX  C   8  -0.00000    -0.02269     0.01709    -0.00677     0.03439    -0.05393
 PY  C   8   0.00000     0.05470    -0.05349    -0.01061    -0.06222     0.14040
 PZ  C   8  -0.18877    -0.00000    -0.00000    -0.00000    -0.00000     0.00000
  
  S  H   9  -0.00000     0.11649     0.17268    -0.18725    -0.21316    -0.23184
  
  S  H  10  -0.00000     0.08484     0.16456    -0.22151    -0.25623    -0.23550
  
  S  H  11   0.00000    -0.14257    -0.22782     0.19441     0.03399    -0.15712
  
  S  H  12  -0.00000     0.18118     0.19609     0.02135     0.26212     0.23323
  
  S  H  13   0.00000    -0.19917    -0.07115    -0.24942    -0.17493     0.17784
  
  S  H  14  -0.00000     0.19917    -0.07115     0.24942    -0.17493    -0.17784
  
  S  H  15  -0.00000    -0.18118     0.19609    -0.02135     0.26212    -0.23323
  
  S  H  16  -0.00000     0.14257    -0.22782    -0.19441     0.03399     0.15712
  
  S  H  17  -0.00000    -0.08484     0.16456     0.22151    -0.25623     0.23550
  
  S  H  18   0.00000    -0.11649     0.17268     0.18725    -0.21316     0.23184




    ROOT NO.   31          32          33          34          35          36

             5.36732     5.94660     6.34063     7.61307     7.63118     8.34458
  
  
  S  C   1  -0.16650     0.08242     0.03067     0.00013     0.00133    -0.00039
 PX  C   1   0.05578    -0.03282    -0.00780     0.46854     0.47610    -0.09439
 PY  C   1  -0.19364     0.16692     0.08151     0.14763     0.15588    -0.12403
 PZ  C   1   0.00000    -0.00000     0.00000    -0.00000    -0.00000    -0.00000
  
  S  C   2  -0.25418     0.20890     0.10138    -0.03829    -0.03729    -0.04402
 PX  C   2  -0.16953     0.25916     0.18579     0.00834    -0.00727     0.22538
 PY  C   2   0.07799     0.01684     0.03071    -0.00294    -0.01051     0.08170
 PZ  C   2  -0.00000     0.00000    -0.00000     0.00000     0.00000     0.00000
  
  S  C   3  -0.04206     0.20276     0.15675     0.00722     0.00364     0.07916
 PX  C   3   0.04640    -0.24259    -0.25086     0.11595     0.09154     0.29968
 PY  C   3   0.16506    -0.01270     0.06624     0.01134     0.02273    -0.05984
 PZ  C   3   0.00000    -0.00000     0.00000    -0.00000    -0.00000    -0.00000
  
  S  C   4   0.21192     0.08334     0.19164    -0.01146    -0.00470    -0.09548
 PX  C   4   0.15515     0.08555     0.32715     0.06731     0.01865     0.37003
 PY  C   4   0.07635    -0.13068    -0.02201    -0.01352    -0.02934     0.00983
 PZ  C   4   0.00000     0.00000     0.00000    -0.00000    -0.00000    -0.00000
  
  S  C   5   0.21192    -0.08334     0.19164     0.01146    -0.00470     0.09548
 PX  C   5  -0.15515     0.08555    -0.32715     0.06731    -0.01865     0.37003
 PY  C   5  -0.07635    -0.13068     0.02201    -0.01352     0.02934     0.00983
 PZ  C   5  -0.00000     0.00000    -0.00000     0.00000     0.00000    -0.00000
  
  S  C   6  -0.04206    -0.20276     0.15675    -0.00722     0.00364    -0.07916
 PX  C   6  -0.04640    -0.24259     0.25086     0.11595    -0.09154     0.29968
 PY  C   6  -0.16506    -0.01270    -0.06624     0.01134    -0.02273    -0.05984
 PZ  C   6   0.00000    -0.00000    -0.00000    -0.00000    -0.00000    -0.00000
  
  S  C   7  -0.25418    -0.20890     0.10138     0.03829    -0.03729     0.04402
 PX  C   7   0.16953     0.25916    -0.18579     0.00834     0.00727     0.22538
 PY  C   7  -0.07799     0.01684    -0.03071    -0.00294     0.01051     0.08170
 PZ  C   7  -0.00000     0.00000    -0.00000     0.00000    -0.00000     0.00000
  
  S  C   8  -0.16650    -0.08242     0.03067    -0.00013     0.00133     0.00039
 PX  C   8  -0.05578    -0.03282     0.00780     0.46854    -0.47610    -0.09439
 PY  C   8   0.19364     0.16692    -0.08151     0.14763    -0.15588    -0.12403
 PZ  C   8   0.00000    -0.00000     0.00000    -0.00000     0.00000    -0.00000
  
  S  H   9   0.21671    -0.16251    -0.07959    -0.31643    -0.32423     0.10396
  
  S  H  10   0.15342    -0.06810    -0.01580     0.35188     0.35464    -0.04028
  
  S  H  11   0.30188    -0.30903    -0.18341    -0.03354    -0.02083    -0.15839
  
  S  H  12   0.04899    -0.28613    -0.25332     0.09847     0.07496     0.23291
  
  S  H  13  -0.24946    -0.11535    -0.32572    -0.06244    -0.01973    -0.28061
  
  S  H  14  -0.24946     0.11535    -0.32572     0.06244    -0.01973     0.28061
  
  S  H  15   0.04899     0.28613    -0.25332    -0.09847     0.07496    -0.23291
  
  S  H  16   0.30188     0.30903    -0.18341     0.03354    -0.02083     0.15839
  
  S  H  17   0.15342     0.06810    -0.01580    -0.35188     0.35464     0.04028
  
  S  H  18   0.21671     0.16251    -0.07959     0.31643    -0.32423    -0.10396




    ROOT NO.   37          38          39          40          41          42

             8.72193     9.01224     9.66639    10.57406    12.22329    13.98093
  
  
  S  C   1   0.01453    -0.02766    -0.05756    -0.08930     0.09670    -0.06328
 PX  C   1  -0.03490    -0.02876    -0.11011    -0.14581     0.11959    -0.06303
 PY  C   1  -0.16707     0.15508     0.23320     0.33306    -0.31491     0.18583
 PZ  C   1   0.00000    -0.00000     0.00000     0.00000     0.00000    -0.00000
  
  S  C   2  -0.09405     0.10087     0.10608     0.09367    -0.02011    -0.02236
 PX  C   2   0.35816    -0.33719    -0.25583    -0.14246    -0.02333     0.06249
 PY  C   2   0.08738    -0.02792     0.15068     0.33346    -0.42589     0.30035
 PZ  C   2  -0.00000     0.00000    -0.00000    -0.00000    -0.00000    -0.00000
  
  S  C   3   0.10219    -0.03725     0.08399     0.11288    -0.03294    -0.04179
 PX  C   3   0.37768    -0.18503     0.17868     0.23361    -0.09271    -0.01018
 PY  C   3   0.06015    -0.22001    -0.29377    -0.06905    -0.33992     0.39795
 PZ  C   3   0.00000    -0.00000     0.00000     0.00000    -0.00000     0.00000
  
  S  C   4  -0.04284    -0.09879    -0.10701     0.02796    -0.09434     0.00868
 PX  C   4   0.10287     0.36000     0.24961    -0.10283     0.12965     0.03574
 PY  C   4  -0.14685     0.15283    -0.24733    -0.30304    -0.15430     0.44285
 PZ  C   4  -0.00000     0.00000    -0.00000    -0.00000    -0.00000     0.00000
  
  S  C   5  -0.04284     0.09879    -0.10701    -0.02796    -0.09434    -0.00868
 PX  C   5  -0.10287     0.36000    -0.24961    -0.10283    -0.12965     0.03574
 PY  C   5   0.14685     0.15283     0.24733    -0.30304     0.15430     0.44285
 PZ  C   5   0.00000    -0.00000     0.00000     0.00000    -0.00000     0.00000
  
  S  C   6   0.10219     0.03725     0.08399    -0.11288    -0.03294     0.04179
 PX  C   6  -0.37768    -0.18503    -0.17868     0.23361     0.09271    -0.01018
 PY  C   6  -0.06015    -0.22001     0.29377    -0.06905     0.33992     0.39795
 PZ  C   6   0.00000    -0.00000     0.00000     0.00000    -0.00000    -0.00000
  
  S  C   7  -0.09405    -0.10087     0.10608    -0.09367    -0.02011     0.02236
 PX  C   7  -0.35816    -0.33719     0.25583    -0.14246     0.02333     0.06249
 PY  C   7  -0.08738    -0.02792    -0.15068     0.33346     0.42589     0.30035
 PZ  C   7  -0.00000    -0.00000    -0.00000    -0.00000    -0.00000     0.00000
  
  S  C   8   0.01453     0.02766    -0.05756     0.08930     0.09670     0.06328
 PX  C   8   0.03490    -0.02876     0.11011    -0.14581    -0.11959    -0.06303
 PY  C   8   0.16707     0.15508    -0.23320     0.33306     0.31491     0.18583
 PZ  C   8   0.00000     0.00000     0.00000     0.00000    -0.00000     0.00000
  
  S  H   9   0.09048    -0.05501    -0.06519    -0.10111     0.09749    -0.05597
  
  S  H  10   0.01046    -0.04581    -0.09072    -0.10610     0.07704    -0.03789
  
  S  H  11  -0.23641     0.20868     0.14992     0.09218    -0.01417    -0.01047
  
  S  H  12   0.25293    -0.09593     0.11530     0.11538    -0.02229    -0.02211
  
  S  H  13  -0.08397    -0.21234    -0.14936     0.03177    -0.06297     0.00472
  
  S  H  14  -0.08397     0.21234    -0.14936    -0.03177    -0.06297    -0.00472
  
  S  H  15   0.25293     0.09593     0.11530    -0.11538    -0.02229     0.02211
  
  S  H  16  -0.23641    -0.20868     0.14992    -0.09218    -0.01417     0.01047
  
  S  H  17   0.01046     0.04581    -0.09072     0.10610     0.07704     0.03789
  
  S  H  18   0.09048     0.05501    -0.06519     0.10111     0.09749     0.05597


 Reference determinate nber   1 is ALPHA 1 -  21
 CAS excitations amongst orbitals:  21  22
 SINGLE excitations FROM orbs  10 to  21 INTO orbs  22 to  33
 

 CI excitations=  531:        =531
 The lowest  531 spin-adapted configurations of multiplicity=  1
     sym   eV   cm**-1 -dets- dipole oscilator X FRAG ....Excitations named from first reference determinate
                       tot  #  Debye  strength
 
   1      0.000      0.  1  1  0.0000 0.000000 0  0 (            )->(               )
   2      4.256  34328.  2  1  0.0000 1.853465 1  1 (  21        )->(  22           )
   3      5.592  45100.  2  1  0.0000 0.000000 1  1 (  21        )->(  23           )
   4      6.128  49424.  2  1  0.0000 0.000000 1  1 (  20        )->(  22           )
   5      6.195  49965.  2  1  0.0000 0.000013 1  1 (  21        )->(  26           )
   6      6.267  50544.  1  1  0.0000 0.000000 2  0 (  21  21    )->(  22  22       )
   7      6.496  52392.  2  1  0.0000 0.010230 1  1 (  21        )->(  24           )
   8      6.831  55099.  2  1  0.0000 0.000000 1  1 (  21        )->(  25           )
   9      6.984  56329.  2  1  0.0000 0.000000 1  1 (  21        )->(  27           )
  10      7.445  60044.  2  1  0.0000 0.000950 1  1 (  21        )->(  28           )
  11      7.762  62609.  2  1  0.0000 0.000138 1  1 (  18        )->(  22           )
  12      7.777  62730.  2  1  0.0000 0.507712 1  1 (  20        )->(  23           )
  13      7.781  62760.  2  1  0.0000 0.010246 1  1 (  19        )->(  22           )
  14      7.895  63679.  2  1  0.0000 0.000000 1  1 (  21        )->(  29           )
  15      8.200  66141.  2  1  0.0000 0.000087 1  1 (  15        )->(  22           )
  16      8.260  66622.  2  1  0.0000 0.111350 1  1 (  21        )->(  30           )
  17      8.525  68756.  2  1  0.0000 0.000000 1  1 (  20        )->(  26           )
  18      8.559  69036.  2  1  0.0000 0.000000 1  1 (  20        )->(  24           )
  19      8.600  69363.  2  1  0.0000 0.000000 1  1 (  16        )->(  22           )
  20      8.759  70649.  2  1  0.0000 0.000000 1  1 (  21        )->(  31           )
  21      8.793  70919.  2  1  0.0000 0.000000 1  1 (  17        )->(  22           )
  22      8.874  71570.  2  1  0.0000 0.002735 1  1 (  20        )->(  25           )
  23      9.117  73532.  2  1  0.0000 0.000026 1  1 (  20        )->(  27           )
  24      9.216  74335.  2  1  0.0000 0.002954 1  1 (  21        )->(  32           )
  25      9.275  74808.  2  1  0.0000 0.000000 1  1 (  21        )->(  33           )
  26      9.285  74888.  2  1  0.0000 0.000000 2  1 (  21  21    )->(  22  23       )
  27      9.313  75116.  2  1  0.0000 0.000000 1  1 (  19        )->(  23           )
  28      9.338  75320.  2  1  0.0000 0.000000 2  1 (  21  21    )->(  22  26       )
  29      9.451  76227.  2  1  0.0000 0.000397 1  1 (  14        )->(  22           )
  30      9.506  76674.  2  1  0.0000 0.000000 1  1 (  18        )->(  23           )
  31      9.631  77676.  2  1  0.0000 0.000000 1  1 (  20        )->(  28           )
  32      9.831  79289.  2  1  0.0000 0.000000 2  1 (  20  21    )->(  22  22       )
  33      9.895  79805.  2  1  0.0000 0.000000 2  1 (  21  21    )->(  22  24       )
  34     10.059  81133.  2  1  0.0000 0.009881 1  1 (  20        )->(  29           )
  35     10.086  81347.  2  1  0.0000 0.000000 1  1 (  13        )->(  22           )
  36     10.119  81614.  2  1  0.0000 0.000000 2  1 (  21  21    )->(  22  27       )
  37     10.151  81877.  2  1  0.0000 0.000000 2  1 (  21  21    )->(  22  25       )
  38     10.193  82208.  2  1  0.0000 0.000000 1  1 (  15        )->(  23           )
  39     10.197  82248.  2  1  0.0000 0.000029 1  1 (  16        )->(  23           )
  40     10.302  83089.  2  1  0.0000 0.002202 1  1 (  17        )->(  23           )
  41     10.344  83434.  2  1  0.0000 0.000000 1  1 (  19        )->(  26           )
  42     10.363  83583.  2  1  0.0000 0.269692 1  1 (  19        )->(  24           )
  43     10.400  83886.  2  1  0.0000 0.000000 1  1 (  20        )->(  30           )
  44     10.567  85229.  6  1  0.0000 0.000000 2  1 (  20  21    )->(  22  23       )
  45     10.574  85287.  2  1  0.0000 0.002247 1  1 (  18        )->(  24           )
  46     10.579  85329.  2  1  0.0000 0.000000 2  1 (  21  21    )->(  22  28       )
  47     10.660  85978.  2  1  0.0000 0.000000 1  1 (  19        )->(  25           )
  48     10.859  87581.  2  1  0.0000 0.000000 1  1 (  18        )->(  25           )
  49     10.872  87689.  2  1  0.0000 0.104210 1  1 (  20        )->(  31           )
  50     10.889  87828.  2  1  0.0000 0.000000 2  1 (  18  21    )->(  22  22       )
  51     10.910  87999.  2  1  0.0000 0.000000 1  1 (  14        )->(  23           )
  52     10.919  88067.  2  1  0.0000 0.000000 1  1 (  19        )->(  27           )
  53     11.024  88915.  2  1  0.0000 0.000000 2  1 (  21  21    )->(  22  29       )
  54     11.136  89820.  2  1  0.0000 0.000000 1  1 (  15        )->(  25           )
  55     11.167  90071.  2  1  0.0000 0.000000 1  1 (  16        )->(  24           )
  56     11.177  90152.  2  1  0.0000 0.000000 2  1 (  19  21    )->(  22  22       )
  57     11.206  90383.  2  1  0.0000 0.000000 1  1 (  17        )->(  26           )
  58     11.238  90641.  2  1  0.0000 0.000000 1  1 (  12        )->(  22           )
  59     11.300  91141.  2  1  0.0000 0.000734 1  1 (  15        )->(  24           )
  60     11.324  91334.  2  1  0.0000 0.000000 2  1 (  15  21    )->(  22  22       )
  61     11.339  91455.  2  1  0.0000 0.000000 1  1 (  17        )->(  24           )
  62     11.391  91874.  2  1  0.0000 0.000000 2  1 (  21  21    )->(  22  30       )
  63     11.414  92060.  2  1  0.0000 0.000000 1  1 (  20        )->(  32           )
  64     11.484  92622.  2  1  0.0000 0.002942 1  1 (  19        )->(  28           )
  65     11.679  94197.  2  1  0.0000 0.235593 1  1 (  17        )->(  25           )
  66     11.710  94450.  2  1  0.0000 0.183699 1  1 (  18        )->(  26           )
  67     11.725  94572.  2  1  0.0000 0.001651 1  1 (  20        )->(  33           )
  68     11.731  94620.  2  1  0.0000 0.000000 2  1 (  16  21    )->(  22  22       )
  69     11.774  94967.  2  1  0.0000 0.001357 1  1 (  13        )->(  23           )
  70     11.782  95028.  6  1  0.0000 0.000000 2  1 (  20  21    )->(  22  24       )
  71     11.850  95574.  2  1  0.0000 0.001964 1  1 (  16        )->(  25           )
  72     11.897  95956.  2  1  0.0000 0.000000 2  1 (  21  21    )->(  22  31       )
  73     11.903  96000.  2  1  0.0000 0.000000 1  1 (  19        )->(  29           )
  74     12.038  97089.  6  1  0.0000 0.000000 2  1 (  20  21    )->(  22  26       )
  75     12.081  97441.  2  1  0.0000 0.000000 2  1 (  17  21    )->(  22  22       )
  76     12.085  97472.  2  1  0.0000 0.005272 1  1 (  14        )->(  24           )
  77     12.106  97641.  2  1  0.0000 0.091151 1  1 (  15        )->(  26           )
  78     12.180  98236.  2  1  0.0000 0.000743 1  1 (  17        )->(  27           )
  79     12.244  98756.  2  1  0.0000 0.004159 1  1 (  19        )->(  30           )
  80     12.355  99653.  2  1  0.0000 0.000000 2  1 (  21  21    )->(  22  32       )
  81     12.374  99801.  6  1  0.0000 0.000000 2  1 (  20  21    )->(  22  25       )
  82     12.420 100175.  2  1  0.0000 0.000000 2  1 (  21  21    )->(  22  33       )
  83     12.437 100308.  2  1  0.0000 0.000000 1  1 (  16        )->(  26           )
  84     12.498 100799.  2  1  0.0000 0.000000 1  1 (  18        )->(  27           )
  85     12.528 101043.  6  2  0.0000 0.000000 2  1 (  20  21    )->(  22  23       )
  86     12.534 101095.  6  1  0.0000 0.000000 2  1 (  19  21    )->(  22  23       )
  87     12.564 101333.  6  1  0.0000 0.000000 2  1 (  20  21    )->(  22  27       )
  88     12.583 101487.  2  1  0.0000 0.000000 2  1 (  14  21    )->(  22  22       )
  89     12.590 101546.  2  1  0.0000 0.000000 1  1 (  17        )->(  28           )
  90     12.679 102267.  2  1  0.0000 0.000000 1  1 (  14        )->(  25           )
  91     12.711 102525.  2  1  0.0000 0.010100 1  1 (  12        )->(  23           )
  92     12.725 102632.  2  1  0.0000 0.000000 1  1 (  19        )->(  31           )
  93     12.791 103165.  2  1  0.0000 0.020661 1  1 (  11        )->(  22           )
  94     12.878 103872.  2  1  0.0000 0.000000 1  1 (  13        )->(  24           )
  95     12.917 104186.  2  1  0.0000 0.000000 3  1 (  20  21  21)->(  22  22  23   )
  96     12.944 104399.  2  1  0.0000 0.007372 1  1 (  18        )->(  28           )
  97     12.966 104579.  6  1  0.0000 0.000000 2  1 (  18  21    )->(  22  23       )
  98     12.997 104829.  2  1  0.0000 0.000000 1  1 (  15        )->(  27           )
  99     13.027 105067.  6  2  0.0000 0.000000 2  1 (  20  21    )->(  22  26       )
 100     13.033 105119.  6  1  0.0000 0.000000 2  1 (  20  21    )->(  22  28       )
 101     13.073 105438.  2  1  0.0000 0.000590 1  1 (  17        )->(  29           )
 102     13.140 105980.  2  1  0.0000 0.140540 1  1 (  16        )->(  27           )
 103     13.143 106003.  2  1  0.0000 0.092995 1  1 (  19        )->(  32           )
 104     13.219 106615.  2  1  0.0000 0.015237 1  1 (  14        )->(  26           )
 105     13.223 106649.  2  1  0.0000 0.000000 2  1 (  13  21    )->(  22  22       )
 106     13.237 106767.  6  2  0.0000 0.000000 2  1 (  20  21    )->(  22  24       )
 107     13.321 107442.  2  1  0.0000 0.000000 1  1 (  18        )->(  29           )
 108     13.389 107992.  2  1  0.0000 0.012679 1  1 (  13        )->(  25           )
 109     13.442 108418.  2  1  0.0000 0.034040 1  1 (  15        )->(  28           )
 110     13.458 108544.  2  1  0.0000 0.000000 1  1 (  17        )->(  30           )
 111     13.549 109278.  2  1  0.0000 0.000000 1  1 (  16        )->(  28           )
 112     13.551 109300.  6  2  0.0000 0.000000 2  1 (  20  21    )->(  22  27       )
 113     13.561 109377.  6  1  0.0000 0.000000 2  1 (  20  21    )->(  22  29       )
 114     13.561 109381.  2  1  0.0000 0.000000 1  1 (  19        )->(  33           )
 115     13.616 109823.  6  1  0.0000 0.000000 2  1 (  18  21    )->(  22  26       )
 116     13.641 110021.  6  1  0.0000 0.000000 2  1 (  19  21    )->(  22  24       )
 117     13.661 110188.  6  1  0.0000 0.000000 2  1 (  16  21    )->(  22  23       )
 118     13.667 110235.  6  1  0.0000 0.000000 2  1 (  15  21    )->(  22  23       )
 119     13.763 111003.  2  1  0.0000 0.000000 1  1 (  12        )->(  24           )
 120     13.763 111008.  2  1  0.0000 0.003607 1  1 (  18        )->(  30           )
 121     13.792 111243.  6  1  0.0000 0.000000 2  1 (  17  21    )->(  22  23       )
 122     13.815 111429.  6  2  0.0000 0.000000 2  1 (  20  21    )->(  22  25       )
 123     13.874 111898.  6  1  0.0000 0.000000 2  1 (  20  21    )->(  22  30       )
 124     13.879 111942.  2  1  0.0000 0.000000 1  1 (  14        )->(  27           )
 125     13.920 112270.  2  1  0.0000 0.001694 1  1 (  17        )->(  31           )
 126     13.928 112335.  2  1  0.0000 0.000000 1  1 (  15        )->(  29           )
 127     13.931 112358.  6  1  0.0000 0.000000 2  1 (  15  21    )->(  22  26       )
 128     13.936 112403.  6  2  0.0000 0.000000 2  1 (  18  21    )->(  22  23       )
 129     13.954 112551.  6  1  0.0000 0.000000 2  1 (  19  21    )->(  22  26       )
 130     13.973 112703.  2  1  0.0000 0.000000 1  1 (  13        )->(  26           )
 131     13.977 112736.  6  2  0.0000 0.000000 2  1 (  19  21    )->(  22  23       )
 132     13.988 112818.  2  1  0.0000 0.002086 1  1 (  16        )->(  29           )
 133     14.002 112933.  2  1  0.0000 0.000000 3  1 (  20  21  21)->(  22  22  24   )
 134     14.029 113152.  6  2  0.0000 0.000000 2  1 (  20  21    )->(  22  28       )
 135     14.101 113731.  6  1  0.0000 0.000000 2  1 (  18  21    )->(  22  24       )
 136     14.158 114193.  2  1  0.0000 0.076951 1  1 (  17        )->(  33           )
 137     14.169 114284.  2  1  0.0000 0.000000 1  1 (  18        )->(  31           )
 138     14.185 114407.  2  1  0.0000 0.002017 1  1 (  10        )->(  22           )
 139     14.240 114856.  2  1  0.0000 0.000000 3  1 (  20  21  21)->(  22  22  26   )
 140     14.257 114988.  2  1  0.0000 0.004493 1  1 (  15        )->(  30           )
 141     14.290 115256.  6  1  0.0000 0.000000 2  1 (  20  21    )->(  22  31       )
 142     14.344 115689.  2  1  0.0000 0.000000 1  1 (  17        )->(  32           )
 143     14.351 115750.  6  1  0.0000 0.000000 2  1 (  19  21    )->(  22  27       )
 144     14.352 115753.  6  1  0.0000 0.000000 2  1 (  14  21    )->(  22  23       )
 145     14.354 115776.  2  1  0.0000 0.000000 1  1 (  16        )->(  30           )
 146     14.368 115887.  6  1  0.0000 0.000000 2  1 (  18  21    )->(  22  27       )
 147     14.372 115918.  2  1  0.0000 0.000000 2  1 (  12  21    )->(  22  22       )
 148     14.411 116235.  6  1  0.0000 0.000000 2  1 (  19  21    )->(  22  25       )
 149     14.417 116285.  2  1  0.0000 0.000000 1  1 (  11        )->(  23           )
 150     14.422 116320.  2  1  0.0000 0.000000 3  1 (  20  21  21)->(  22  22  25   )
 151     14.481 116798.  2  1  0.0000 0.160961 1  1 (  14        )->(  28           )
 152     14.514 117064.  6  1  0.0000 0.000000 2  1 (  18  21    )->(  22  25       )
 153     14.520 117115.  6  1  0.0000 0.000000 2  1 (  16  21    )->(  22  26       )
 154     14.544 117307.  6  2  0.0000 0.000000 2  1 (  20  21    )->(  22  29       )
 155     14.555 117391.  2  1  0.0000 0.009554 1  1 (  12        )->(  25           )
 156     14.577 117568.  6  2  0.0000 0.000000 2  1 (  19  21    )->(  22  26       )
 157     14.618 117902.  2  1  0.0000 0.005748 1  1 (  18        )->(  32           )
 158     14.632 118016.  6  2  0.0000 0.000000 2  1 (  16  21    )->(  22  23       )
 159     14.637 118052.  6  2  0.0000 0.000000 2  1 (  15  21    )->(  22  23       )
 160     14.644 118116.  2  1  0.0000 0.023265 1  1 (  13        )->(  27           )
 161     14.648 118145.  6  2  0.0000 0.000000 2  1 (  19  21    )->(  22  24       )
 162     14.679 118395.  6  1  0.0000 0.000000 2  1 (  16  21    )->(  22  24       )
 163     14.700 118563.  2  1  0.0000 0.000000 1  1 (  18        )->(  33           )
 164     14.750 118970.  2  1  0.0000 0.000000 3  1 (  19  21  21)->(  22  22  23   )
 165     14.758 119034.  2  1  0.0000 0.000000 1  1 (  15        )->(  31           )
 166     14.783 119230.  6  2  0.0000 0.000000 2  1 (  18  21    )->(  22  24       )
 167     14.791 119295.  6  1  0.0000 0.000000 2  1 (  15  21    )->(  22  25       )
 168     14.809 119440.  6  1  0.0000 0.000000 2  1 (  17  21    )->(  22  26       )
 169     14.819 119520.  2  1  0.0000 0.000000 3  1 (  20  21  21)->(  22  22  27   )
 170     14.819 119525.  2  1  0.0000 0.000000 1  1 (  14        )->(  29           )
 171     14.822 119550.  6  1  0.0000 0.000000 2  1 (  18  21    )->(  22  28       )
 172     14.857 119832.  6  2  0.0000 0.000000 2  1 (  20  21    )->(  22  30       )
 173     14.860 119857.  6  1  0.0000 0.000000 2  1 (  15  21    )->(  22  24       )
 174     14.872 119951.  2  1  0.0000 0.011147 1  1 (  16        )->(  31           )
 175     14.888 120076.  6  1  0.0000 0.000000 2  1 (  16  21    )->(  22  27       )
 176     14.889 120088.  6  1  0.0000 0.000000 2  1 (  20  21    )->(  22  32       )
 177     15.038 121292.  6  1  0.0000 0.000000 2  1 (  19  21    )->(  22  28       )
 178     15.077 121607.  6  2  0.0000 0.000000 2  1 (  18  21    )->(  22  25       )
 179     15.084 121663.  6  1  0.0000 0.000000 2  1 (  17  21    )->(  22  24       )
 180     15.093 121736.  6  1  0.0000 0.000000 2  1 (  15  21    )->(  22  27       )
 181     15.109 121866.  2  1  0.0000 0.000000 1  1 (  12        )->(  26           )
 182     15.118 121934.  6  2  0.0000 0.000000 2  1 (  19  21    )->(  22  27       )
 183     15.121 121961.  2  1  0.0000 0.000000 1  1 (  13        )->(  28           )
 184     15.193 122542.  2  1  0.0000 0.033858 1  1 (  14        )->(  30           )
 185     15.196 122567.  6  2  0.0000 0.000000 2  1 (  17  21    )->(  22  23       )
 186     15.199 122591.  6  2  0.0000 0.000000 2  1 (  19  21    )->(  22  25       )
 187     15.202 122612.  2  1  0.0000 0.000000 3  1 (  18  21  21)->(  22  22  23   )
 188     15.215 122716.  2  1  0.0000 0.048659 1  1 (  15        )->(  32           )
 189     15.219 122750.  6  1  0.0000 0.000000 2  1 (  20  21    )->(  22  33       )
 190     15.243 122940.  2  1  0.0000 0.000000 1  1 (  15        )->(  33           )
 191     15.256 123052.  6  1  0.0000 0.000000 2  1 (  13  21    )->(  22  23       )
 192     15.283 123263.  6  1  0.0000 0.000000 2  1 (  17  21    )->(  22  25       )
 193     15.284 123274.  6  2  0.0000 0.000000 2  1 (  20  21    )->(  22  31       )
 194     15.325 123608.  6  2  0.0000 0.000000 2  1 (  14  21    )->(  22  23       )
 195     15.333 123671.  2  1  0.0000 0.000000 3  1 (  20  21  21)->(  22  22  28   )
 196     15.352 123821.  6  2  0.0000 0.000000 2  1 (  15  21    )->(  22  25       )
 197     15.361 123897.  6  1  0.0000 0.000000 2  1 (  15  21    )->(  22  28       )
 198     15.365 123925.  6  1  0.0000 0.000000 2  1 (  14  21    )->(  22  26       )
 199     15.365 123929.  6  1  0.0000 0.000000 2  1 (  18  21    )->(  22  29       )
 200     15.378 124029.  6  2  0.0000 0.000000 2  1 (  16  21    )->(  22  24       )
 201     15.413 124311.  6  2  0.0000 0.000000 2  1 (  17  21    )->(  22  26       )
 202     15.468 124756.  2  1  0.0000 0.000000 1  1 (  16        )->(  32           )
 203     15.511 125104.  6  2  0.0000 0.000000 2  1 (  15  21    )->(  22  24       )
 204     15.515 125134.  6  1  0.0000 0.000000 2  1 (  19  21    )->(  22  29       )
 205     15.531 125262.  6  1  0.0000 0.000000 2  1 (  16  21    )->(  22  25       )
 206     15.542 125359.  2  1  0.0000 0.025978 1  1 (  11        )->(  24           )
 207     15.554 125449.  6  1  0.0000 0.000000 2  1 (  16  21    )->(  22  28       )
 208     15.604 125854.  6  1  0.0000 0.000000 2  1 (  14  21    )->(  22  24       )
 209     15.637 126119.  2  1  0.0000 0.128180 1  1 (  13        )->(  29           )
 210     15.650 126223.  2  1  0.0000 0.015775 1  1 (  12        )->(  27           )
 211     15.657 126284.  6  1  0.0000 0.000000 2  1 (  18  21    )->(  22  30       )
 212     15.699 126624.  6  2  0.0000 0.000000 2  1 (  19  21    )->(  22  28       )
 213     15.755 127072.  2  1  0.0000 0.000000 3  1 (  20  21  21)->(  22  22  29   )
 214     15.760 127109.  2  1  0.0000 0.036919 1  1 (  16        )->(  33           )
 215     15.790 127354.  2  1  0.0000 0.000000 1  1 (  14        )->(  31           )
 216     15.810 127512.  6  1  0.0000 0.000000 2  1 (  19  21    )->(  22  30       )
 217     15.816 127569.  2  1  0.0000 0.000000 1  1 (  10        )->(  23           )
 218     15.819 127585.  2  1  0.0000 0.000000 3  1 (  17  21  21)->(  22  22  23   )
 219     15.823 127625.  6  1  0.0000 0.000000 2  1 (  14  21    )->(  22  27       )
 220     15.853 127862.  6  2  0.0000 0.000000 2  1 (  17  21    )->(  22  24       )
 221     15.875 128044.  6  2  0.0000 0.000000 2  1 (  20  21    )->(  22  32       )
 222     15.880 128085.  6  1  0.0000 0.000000 2  1 (  17  21    )->(  22  27       )
 223     15.881 128089.  2  1  0.0000 0.000000 3  1 (  15  21  21)->(  22  22  23   )
 224     15.901 128254.  2  1  0.0000 0.000000 3  1 (  16  21  21)->(  22  22  23   )
 225     15.902 128255.  6  1  0.0000 0.000000 2  1 (  15  21    )->(  22  29       )
 226     15.927 128463.  2  1  0.0000 0.000000 2  1 (  11  21    )->(  22  22       )
 227     15.946 128613.  6  2  0.0000 0.000000 2  1 (  17  21    )->(  22  25       )
 228     15.969 128796.  6  2  0.0000 0.000000 2  1 (  18  21    )->(  22  26       )
 229     15.985 128929.  2  1  0.0000 0.000000 1  1 (  13        )->(  30           )
 230     16.007 129108.  6  1  0.0000 0.000000 2  1 (  16  21    )->(  22  29       )
 231     16.072 129627.  6  1  0.0000 0.000000 2  1 (  18  21    )->(  22  31       )
 232     16.075 129651.  6  2  0.0000 0.000000 2  1 (  16  21    )->(  22  25       )
 233     16.093 129798.  2  1  0.0000 0.000000 1  1 (  11        )->(  25           )
 234     16.098 129837.  2  1  0.0000 0.000000 3  1 (  20  21  21)->(  22  22  30   )
 235     16.103 129878.  2  1  0.0000 0.000000 3  1 (  19  21  21)->(  22  22  24   )
 236     16.125 130054.  6  2  0.0000 0.000000 2  1 (  19  21    )->(  22  29       )
 237     16.132 130111.  6  1  0.0000 0.000000 2  1 (  13  21    )->(  22  26       )
 238     16.158 130321.  6  1  0.0000 0.000000 2  1 (  12  21    )->(  22  23       )
 239     16.205 130706.  6  2  0.0000 0.000000 2  1 (  20  21    )->(  22  33       )
 240     16.222 130843.  6  1  0.0000 0.000000 2  1 (  19  21    )->(  22  31       )
 241     16.226 130876.  2  1  0.0000 0.000000 1  1 (  12        )->(  28           )
 242     16.227 130879.  6  2  0.0000 0.000000 2  1 (  13  21    )->(  22  23       )
 243     16.235 130948.  6  1  0.0000 0.000000 2  1 (  14  21    )->(  22  28       )
 244     16.261 131155.  6  1  0.0000 0.000000 2  1 (  17  21    )->(  22  28       )
 245     16.274 131261.  2  1  0.0000 0.079622 1  1 (  14        )->(  32           )
 246     16.284 131342.  6  1  0.0000 0.000000 2  1 (  15  21    )->(  22  30       )
 247     16.284 131342.  6  1  0.0000 0.000000 2  1 (  16  21    )->(  22  30       )
 248     16.296 131440.  6  2  0.0000 0.000000 2  1 (  14  21    )->(  22  24       )
 249     16.355 131915.  6  1  0.0000 0.000000 2  1 (  14  21    )->(  22  25       )
 250     16.357 131930.  2  1  0.0000 0.000000 3  1 (  19  21  21)->(  22  22  26   )
 251     16.361 131959.  6  2  0.0000 0.000000 2  1 (  15  21    )->(  22  26       )
 252     16.387 132172.  6  2  0.0000 0.000000 2  1 (  17  21    )->(  22  27       )
 253     16.429 132505.  2  1  0.0000 0.134897 1  1 (  13        )->(  31           )
 254     16.436 132562.  6  1  0.0000 0.000000 2  1 (  13  21    )->(  22  24       )
 255     16.459 132749.  6  2  0.0000 0.000000 2  1 (  19  21    )->(  22  30       )
 256     16.505 133126.  2  1  0.0000 0.000000 3  1 (  19  21  21)->(  22  22  25   )
 257     16.559 133557.  6  1  0.0000 0.000000 2  1 (  18  21    )->(  22  32       )
 258     16.560 133563.  2  1  0.0000 0.000000 1  1 (  14        )->(  33           )
 259     16.572 133665.  2  1  0.0000 0.000000 3  1 (  18  21  21)->(  22  22  24   )
 260     16.578 133707.  2  1  0.0000 0.000000 3  1 (  20  21  21)->(  22  22  31   )
 261     16.615 134010.  2  1  0.0000 0.000000 3  1 (  14  21  21)->(  22  22  23   )
 262     16.621 134056.  2  1  0.0000 0.000120 1  1 (  11        )->(  26           )
 263     16.632 134144.  6  1  0.0000 0.000000 2  1 (  13  21    )->(  22  27       )
 264     16.644 134244.  6  1  0.0000 0.000000 2  1 (  19  21    )->(  22  32       )
 265     16.665 134415.  6  1  0.0000 0.000000 2  1 (  18  21    )->(  22  33       )
 266     16.672 134468.  6  1  0.0000 0.000000 2  1 (  15  21    )->(  22  31       )
 267     16.678 134520.  6  1  0.0000 0.000000 2  1 (  16  21    )->(  22  31       )
 268     16.699 134689.  6  2  0.0000 0.000000 2  1 (  16  21    )->(  22  26       )
 269     16.705 134733.  2  1  0.0000 0.124548 1  1 (  12        )->(  29           )
 270     16.749 135090.  6  2  0.0000 0.000000 2  1 (  18  21    )->(  22  27       )
 271     16.755 135136.  6  1  0.0000 0.000000 2  1 (  15  21    )->(  22  33       )
 272     16.795 135461.  6  2  0.0000 0.000000 2  1 (  17  21    )->(  22  28       )
 273     16.819 135657.  6  1  0.0000 0.000000 2  1 (  17  21    )->(  22  29       )
 274     16.873 136091.  6  1  0.0000 0.000000 2  1 (  14  21    )->(  22  29       )
 275     16.904 136342.  6  2  0.0000 0.000000 2  1 (  14  21    )->(  22  25       )
 276     16.918 136452.  2  1  0.0000 0.000000 3  1 (  19  21  21)->(  22  22  27   )
 277     16.934 136580.  6  2  0.0000 0.000000 2  1 (  19  21    )->(  22  31       )
 278     16.963 136812.  2  1  0.0000 0.000000 3  1 (  18  21  21)->(  22  22  25   )
 279     16.998 137100.  2  1  0.0000 0.043184 1  1 (  10        )->(  24           )
 280     17.016 137245.  2  1  0.0000 0.000000 1  1 (  13        )->(  32           )
 281     17.059 137592.  2  1  0.0000 0.000000 1  1 (  12        )->(  30           )
 282     17.071 137687.  6  1  0.0000 0.000000 2  1 (  16  21    )->(  22  32       )
 283     17.088 137821.  6  1  0.0000 0.000000 2  1 (  13  21    )->(  22  25       )
 284     17.100 137919.  6  2  0.0000 0.000000 2  1 (  13  21    )->(  22  24       )
 285     17.123 138104.  2  1  0.0000 0.000000 3  1 (  20  21  21)->(  22  22  32   )
 286     17.131 138168.  6  1  0.0000 0.000000 2  1 (  14  21    )->(  22  30       )
 287     17.131 138171.  6  2  0.0000 0.000000 2  1 (  12  21    )->(  22  23       )
 288     17.138 138227.  6  1  0.0000 0.000000 2  1 (  13  21    )->(  22  28       )
 289     17.147 138298.  6  1  0.0000 0.000000 2  1 (  15  21    )->(  22  32       )
 290     17.153 138351.  6  1  0.0000 0.000000 2  1 (  19  21    )->(  22  33       )
 291     17.158 138392.  2  1  0.0000 0.000000 3  1 (  17  21  21)->(  22  22  24   )
 292     17.174 138515.  6  1  0.0000 0.000000 2  1 (  17  21    )->(  22  30       )
 293     17.174 138518.  2  1  0.0000 0.000000 3  1 (  16  21  21)->(  22  22  24   )
 294     17.196 138693.  6  2  0.0000 0.000000 2  1 (  18  21    )->(  22  28       )
 295     17.224 138918.  2  1  0.0000 0.000000 1  1 (  11        )->(  27           )
 296     17.233 138995.  2  1  0.0000 0.000000 3  1 (  15  21  21)->(  22  22  25   )
 297     17.245 139092.  6  2  0.0000 0.000000 2  1 (  15  21    )->(  22  27       )
 298     17.249 139126.  6  1  0.0000 0.000000 2  1 (  12  21    )->(  22  26       )
 299     17.279 139368.  6  1  0.0000 0.000000 2  1 (  12  21    )->(  22  24       )
 300     17.281 139383.  6  2  0.0000 0.000000 2  1 (  17  21    )->(  22  29       )
 301     17.291 139462.  2  1  0.0000 0.000000 3  1 (  15  21  21)->(  22  22  24   )
 302     17.292 139467.  2  1  0.0000 0.009354 1  1 (  13        )->(  33           )
 303     17.298 139522.  2  1  0.0000 0.000000 3  1 (  17  21  21)->(  22  22  26   )
 304     17.318 139682.  2  1  0.0000 0.000000 2  1 (  10  21    )->(  22  22       )
 305     17.354 139966.  6  2  0.0000 0.000000 2  1 (  19  21    )->(  22  32       )
 306     17.396 140305.  6  2  0.0000 0.000000 2  1 (  16  21    )->(  22  27       )
 307     17.402 140360.  6  1  0.0000 0.000000 2  1 (  14  21    )->(  22  31       )
 308     17.413 140449.  2  1  0.0000 0.000000 1  1 (  10        )->(  25           )
 309     17.446 140712.  2  1  0.0000 0.000000 3  1 (  20  21  21)->(  22  22  33   )
 310     17.482 140998.  6  2  0.0000 0.000000 2  1 (  14  21    )->(  22  26       )
 311     17.484 141014.  2  1  0.0000 0.000000 3  1 (  19  21  21)->(  22  22  28   )
 312     17.488 141052.  2  1  0.0000 0.000000 3  1 (  13  21  21)->(  22  22  23   )
 313     17.495 141104.  6  1  0.0000 0.000000 2  1 (  13  21    )->(  22  29       )
 314     17.554 141580.  2  1  0.0000 0.040599 1  1 (  12        )->(  31           )
 315     17.567 141688.  6  1  0.0000 0.000000 2  1 (  17  21    )->(  22  31       )
 316     17.570 141708.  6  2  0.0000 0.000000 2  1 (  18  21    )->(  22  29       )
 317     17.583 141817.  6  1  0.0000 0.000000 2  1 (  12  21    )->(  22  27       )
 318     17.599 141944.  6  1  0.0000 0.000000 2  1 (  16  21    )->(  22  33       )
 319     17.604 141987.  2  1  0.0000 0.000000 3  1 (  17  21  21)->(  22  22  25   )
 320     17.620 142119.  6  2  0.0000 0.000000 2  1 (  13  21    )->(  22  25       )
 321     17.664 142471.  6  2  0.0000 0.000000 2  1 (  17  21    )->(  22  30       )
 322     17.690 142684.  6  2  0.0000 0.000000 2  1 (  15  21    )->(  22  28       )
 323     17.787 143459.  2  1  0.0000 0.001754 1  1 (  11        )->(  28           )
 324     17.792 143499.  6  2  0.0000 0.000000 2  1 (  19  21    )->(  22  33       )
 325     17.802 143582.  6  1  0.0000 0.000000 2  1 (  17  21    )->(  22  33       )
 326     17.805 143606.  6  2  0.0000 0.000000 2  1 (  16  21    )->(  22  28       )
 327     17.835 143848.  6  1  0.0000 0.000000 2  1 (  13  21    )->(  22  30       )
 328     17.895 144337.  2  1  0.0000 0.000000 3  1 (  19  21  21)->(  22  22  29   )
 329     17.905 144417.  6  1  0.0000 0.000000 2  1 (  11  21    )->(  22  23       )
 330     17.962 144874.  2  1  0.0000 0.000000 3  1 (  16  21  21)->(  22  22  25   )
 331     17.976 144984.  6  2  0.0000 0.000000 2  1 (  12  21    )->(  22  24       )
 332     17.981 145030.  2  1  0.0000 0.000000 3  1 (  18  21  21)->(  22  22  26   )
 333     17.992 145116.  2  1  0.0000 0.000000 1  1 (  12        )->(  32           )
 334     18.010 145261.  6  1  0.0000 0.000000 2  1 (  17  21    )->(  22  32       )
 335     18.012 145281.  6  2  0.0000 0.000000 2  1 (  18  21    )->(  22  30       )
 336     18.059 145653.  6  1  0.0000 0.000000 2  1 (  14  21    )->(  22  32       )
 337     18.078 145812.  2  1  0.0000 0.001796 1  1 (  10        )->(  26           )
 338     18.092 145923.  2  1  0.0000 0.000000 3  1 (  14  21  21)->(  22  22  24   )
 339     18.124 146184.  6  2  0.0000 0.000000 2  1 (  17  21    )->(  22  31       )
 340     18.135 146270.  6  2  0.0000 0.000000 2  1 (  14  21    )->(  22  27       )
 341     18.152 146406.  6  1  0.0000 0.000000 2  1 (  12  21    )->(  22  28       )
 342     18.173 146573.  6  2  0.0000 0.000000 2  1 (  15  21    )->(  22  29       )
 343     18.234 147068.  6  1  0.0000 0.000000 2  1 (  12  21    )->(  22  25       )
 344     18.239 147104.  2  1  0.0000 0.000000 3  1 (  19  21  21)->(  22  22  30   )
 345     18.240 147118.  6  2  0.0000 0.000000 2  1 (  16  21    )->(  22  29       )
 346     18.241 147123.  6  2  0.0000 0.000000 2  1 (  13  21    )->(  22  26       )
 347     18.257 147254.  2  1  0.0000 0.000000 1  1 (  11        )->(  29           )
 348     18.258 147264.  2  1  0.0000 0.000000 3  1 (  17  21  21)->(  22  22  27   )
 349     18.370 148161.  6  2  0.0000 0.000000 2  1 (  17  21    )->(  22  33       )
 350     18.370 148164.  2  1  0.0000 0.000000 3  1 (  15  21  21)->(  22  22  26   )
 351     18.406 148454.  6  1  0.0000 0.000000 2  1 (  14  21    )->(  22  33       )
 352     18.410 148488.  2  1  0.0000 0.015365 1  1 (  12        )->(  33           )
 353     18.420 148571.  2  1  0.0000 0.000000 3  1 (  12  21  21)->(  22  22  23   )
 354     18.423 148590.  6  2  0.0000 0.000000 2  1 (  18  21    )->(  22  31       )
 355     18.424 148602.  6  1  0.0000 0.000000 2  1 (  13  21    )->(  22  31       )
 356     18.502 149232.  6  2  0.0000 0.000000 2  1 (  15  21    )->(  22  30       )
 357     18.551 149627.  6  2  0.0000 0.000000 2  1 (  17  21    )->(  22  32       )
 358     18.608 150083.  6  2  0.0000 0.000000 2  1 (  16  21    )->(  22  30       )
 359     18.643 150364.  2  1  0.0000 0.239344 1  1 (  11        )->(  30           )
 360     18.654 150459.  6  1  0.0000 0.000000 2  1 (  12  21    )->(  22  29       )
 361     18.670 150580.  2  1  0.0000 0.000000 3  1 (  17  21  21)->(  22  22  28   )
 362     18.716 150957.  2  1  0.0000 0.000000 3  1 (  16  21  21)->(  22  22  26   )
 363     18.727 151047.  2  1  0.0000 0.000000 3  1 (  19  21  21)->(  22  22  31   )
 364     18.738 151130.  6  2  0.0000 0.000000 2  1 (  14  21    )->(  22  28       )
 365     18.743 151171.  2  1  0.0000 0.000000 1  1 (  10        )->(  27           )
 366     18.755 151268.  2  1  0.0000 0.000000 3  1 (  18  21  21)->(  22  22  27   )
 367     18.782 151485.  6  2  0.0000 0.000000 2  1 (  12  21    )->(  22  25       )
 368     18.792 151572.  2  1  0.0000 0.000000 3  1 (  14  21  21)->(  22  22  25   )
 369     18.819 151785.  6  1  0.0000 0.000000 2  1 (  11  21    )->(  22  26       )
 370     18.873 152221.  6  2  0.0000 0.000000 2  1 (  18  21    )->(  22  32       )
 371     18.875 152241.  6  2  0.0000 0.000000 2  1 (  11  21    )->(  22  23       )
 372     18.881 152288.  6  1  0.0000 0.000000 2  1 (  13  21    )->(  22  32       )
 373     18.895 152397.  2  1  0.0000 0.000000 3  1 (  13  21  21)->(  22  22  24   )
 374     18.905 152480.  6  2  0.0000 0.000000 2  1 (  13  21    )->(  22  27       )
 375     18.928 152663.  6  1  0.0000 0.000000 2  1 (  12  21    )->(  22  30       )
 376     18.961 152930.  6  2  0.0000 0.000000 2  1 (  18  21    )->(  22  33       )
 377     19.008 153311.  6  2  0.0000 0.000000 2  1 (  15  21    )->(  22  31       )
 378     19.072 153829.  6  2  0.0000 0.000000 2  1 (  14  21    )->(  22  29       )
 379     19.102 154064.  6  1  0.0000 0.000000 2  1 (  11  21    )->(  22  24       )
 380     19.130 154291.  6  2  0.0000 0.000000 2  1 (  16  21    )->(  22  31       )
 381     19.145 154417.  2  1  0.0000 0.000000 3  1 (  17  21  21)->(  22  22  29   )
 382     19.149 154444.  2  1  0.0000 0.000000 1  1 (  11        )->(  31           )
 383     19.149 154445.  2  1  0.0000 0.000000 3  1 (  19  21  21)->(  22  22  32   )
 384     19.174 154652.  6  1  0.0000 0.000000 2  1 (  13  21    )->(  22  33       )
 385     19.202 154875.  2  1  0.0000 0.000000 3  1 (  18  21  21)->(  22  22  28   )
 386     19.247 155241.  2  1  0.0000 0.000000 3  1 (  15  21  21)->(  22  22  27   )
 387     19.250 155262.  2  1  0.0000 0.000755 1  1 (  10        )->(  28           )
 388     19.267 155397.  6  1  0.0000 0.000000 2  1 (  10  21    )->(  22  23       )
 389     19.331 155914.  6  1  0.0000 0.000000 2  1 (  12  21    )->(  22  31       )
 390     19.336 155956.  6  1  0.0000 0.000000 2  1 (  11  21    )->(  22  27       )
 391     19.375 156267.  6  2  0.0000 0.000000 2  1 (  12  21    )->(  22  26       )
 392     19.382 156329.  6  2  0.0000 0.000000 2  1 (  13  21    )->(  22  28       )
 393     19.406 156517.  2  1  0.0000 0.000000 3  1 (  16  21  21)->(  22  22  27   )
 394     19.447 156851.  6  2  0.0000 0.000000 2  1 (  14  21    )->(  22  30       )
 395     19.466 157006.  6  2  0.0000 0.000000 2  1 (  15  21    )->(  22  32       )
 396     19.499 157269.  2  1  0.0000 0.000000 3  1 (  14  21  21)->(  22  22  26   )
 397     19.500 157278.  6  2  0.0000 0.000000 2  1 (  15  21    )->(  22  33       )
 398     19.511 157370.  2  1  0.0000 0.000000 3  1 (  13  21  21)->(  22  22  25   )
 399     19.532 157535.  2  1  0.0000 0.000000 3  1 (  17  21  21)->(  22  22  30   )
 400     19.572 157862.  2  1  0.0000 0.000000 3  1 (  18  21  21)->(  22  22  29   )
 401     19.579 157918.  2  1  0.0000 0.000000 3  1 (  19  21  21)->(  22  22  33   )
 402     19.693 158837.  2  1  0.0000 0.000000 3  1 (  15  21  21)->(  22  22  28   )
 403     19.717 159032.  2  1  0.0000 0.010876 1  1 (  11        )->(  32           )
 404     19.727 159110.  6  2  0.0000 0.000000 2  1 (  16  21    )->(  22  32       )
 405     19.749 159285.  2  1  0.0000 0.000000 1  1 (  10        )->(  29           )
 406     19.764 159405.  6  2  0.0000 0.000000 2  1 (  11  21    )->(  22  24       )
 407     19.774 159490.  2  1  0.0000 0.000000 3  1 (  12  21  21)->(  22  22  24   )
 408     19.775 159499.  6  1  0.0000 0.000000 2  1 (  11  21    )->(  22  28       )
 409     19.788 159600.  6  1  0.0000 0.000000 2  1 (  11  21    )->(  22  25       )
 410     19.815 159822.  2  1  0.0000 0.000000 3  1 (  16  21  21)->(  22  22  28   )
 411     19.881 160354.  6  1  0.0000 0.000000 2  1 (  12  21    )->(  22  32       )
 412     19.894 160459.  6  2  0.0000 0.000000 2  1 (  13  21    )->(  22  29       )
 413     19.908 160569.  6  2  0.0000 0.000000 2  1 (  12  21    )->(  22  27       )
 414     19.995 161267.  2  1  0.0000 0.000000 1  1 (  11        )->(  33           )
 415     20.002 161328.  2  1  0.0000 0.000000 3  1 (  17  21  21)->(  22  22  31   )
 416     20.016 161440.  2  1  0.0000 0.000000 3  1 (  18  21  21)->(  22  22  30   )
 417     20.025 161511.  6  2  0.0000 0.000000 2  1 (  16  21    )->(  22  33       )
 418     20.048 161697.  6  2  0.0000 0.000000 2  1 (  14  21    )->(  22  31       )
 419     20.127 162337.  2  1  0.0000 0.049826 1  1 (  10        )->(  30           )
 420     20.130 162362.  2  1  0.0000 0.000000 3  1 (  11  21  21)->(  22  22  23   )
 421     20.146 162485.  2  1  0.0000 0.000000 3  1 (  14  21  21)->(  22  22  27   )
 422     20.172 162698.  2  1  0.0000 0.000000 3  1 (  15  21  21)->(  22  22  29   )
 423     20.181 162774.  6  1  0.0000 0.000000 2  1 (  11  21    )->(  22  29       )
 424     20.196 162890.  6  1  0.0000 0.000000 2  1 (  10  21    )->(  22  26       )
 425     20.240 163244.  6  2  0.0000 0.000000 2  1 (  10  21    )->(  22  23       )
 426     20.243 163275.  6  2  0.0000 0.000000 2  1 (  13  21    )->(  22  30       )
 427     20.247 163306.  2  1  0.0000 0.000000 3  1 (  16  21  21)->(  22  22  29   )
 428     20.256 163373.  2  1  0.0000 0.000000 3  1 (  17  21  21)->(  22  22  33   )
 429     20.263 163430.  2  1  0.0000 0.000000 3  1 (  13  21  21)->(  22  22  26   )
 430     20.323 163920.  6  2  0.0000 0.000000 2  1 (  11  21    )->(  22  25       )
 431     20.353 164157.  6  1  0.0000 0.000000 2  1 (  12  21    )->(  22  33       )
 432     20.429 164773.  2  1  0.0000 0.000000 3  1 (  17  21  21)->(  22  22  32   )
 433     20.430 164783.  2  1  0.0000 0.000000 3  1 (  18  21  21)->(  22  22  31   )
 434     20.485 165224.  6  2  0.0000 0.000000 2  1 (  12  21    )->(  22  28       )
 435     20.502 165363.  2  1  0.0000 0.000000 3  1 (  15  21  21)->(  22  22  30   )
 436     20.525 165544.  6  1  0.0000 0.000000 2  1 (  11  21    )->(  22  30       )
 437     20.527 165559.  6  1  0.0000 0.000000 2  1 (  10  21    )->(  22  24       )
 438     20.534 165616.  6  2  0.0000 0.000000 2  1 (  14  21    )->(  22  32       )
 439     20.582 166006.  2  1  0.0000 0.000000 1  1 (  10        )->(  31           )
 440     20.616 166277.  2  1  0.0000 0.000000 3  1 (  16  21  21)->(  22  22  30   )
 441     20.672 166731.  2  1  0.0000 0.000000 3  1 (  12  21  21)->(  22  22  25   )
 442     20.691 166885.  6  2  0.0000 0.000000 2  1 (  13  21    )->(  22  31       )
 443     20.748 167348.  2  1  0.0000 0.000000 3  1 (  14  21  21)->(  22  22  28   )
 444     20.809 167836.  6  1  0.0000 0.000000 2  1 (  10  21    )->(  22  27       )
 445     20.825 167966.  6  2  0.0000 0.000000 2  1 (  14  21    )->(  22  33       )
 446     20.882 168428.  2  1  0.0000 0.000000 3  1 (  18  21  21)->(  22  22  32   )
 447     20.888 168472.  6  2  0.0000 0.000000 2  1 (  11  21    )->(  22  26       )
 448     20.920 168732.  2  1  0.0000 0.000000 3  1 (  13  21  21)->(  22  22  27   )
 449     20.960 169054.  6  2  0.0000 0.000000 2  1 (  12  21    )->(  22  29       )
 450     20.976 169184.  2  1  0.0000 0.000000 3  1 (  18  21  21)->(  22  22  33   )
 451     21.012 169476.  2  1  0.0000 0.000000 3  1 (  15  21  21)->(  22  22  31   )
 452     21.046 169745.  6  1  0.0000 0.000000 2  1 (  11  21    )->(  22  31       )
 453     21.080 170019.  2  1  0.0000 0.000000 3  1 (  14  21  21)->(  22  22  29   )
 454     21.097 170160.  2  1  0.0000 0.083638 1  1 (  10        )->(  32           )
 455     21.098 170169.  6  1  0.0000 0.000000 2  1 (  10  21    )->(  22  25       )
 456     21.142 170519.  2  1  0.0000 0.000000 3  1 (  16  21  21)->(  22  22  31   )
 457     21.175 170791.  6  1  0.0000 0.000000 2  1 (  10  21    )->(  22  28       )
 458     21.213 171091.  6  2  0.0000 0.000000 2  1 (  10  21    )->(  22  24       )
 459     21.224 171181.  2  1  0.0000 0.000000 1  1 (  10        )->(  33           )
 460     21.280 171637.  6  2  0.0000 0.000000 2  1 (  13  21    )->(  22  32       )
 461     21.315 171919.  6  2  0.0000 0.000000 2  1 (  12  21    )->(  22  30       )
 462     21.394 172555.  2  1  0.0000 0.000000 3  1 (  12  21  21)->(  22  22  26   )
 463     21.398 172584.  2  1  0.0000 0.000000 3  1 (  13  21  21)->(  22  22  28   )
 464     21.455 173048.  2  1  0.0000 0.000000 3  1 (  14  21  21)->(  22  22  30   )
 465     21.472 173184.  2  1  0.0000 0.000000 3  1 (  15  21  21)->(  22  22  32   )
 466     21.484 173279.  6  2  0.0000 0.000000 2  1 (  11  21    )->(  22  27       )
 467     21.512 173504.  2  1  0.0000 0.000000 3  1 (  15  21  21)->(  22  22  33   )
 468     21.524 173606.  2  1  0.0000 0.000000 3  1 (  10  21  21)->(  22  22  23   )
 469     21.540 173733.  6  1  0.0000 0.000000 2  1 (  11  21    )->(  22  32       )
 470     21.558 173877.  2  1  0.0000 0.000000 3  1 (  11  21  21)->(  22  22  24   )
 471     21.562 173908.  6  2  0.0000 0.000000 2  1 (  13  21    )->(  22  33       )
 472     21.641 174544.  6  2  0.0000 0.000000 2  1 (  10  21    )->(  22  25       )
 473     21.679 174856.  6  1  0.0000 0.000000 2  1 (  10  21    )->(  22  29       )
 474     21.741 175350.  2  1  0.0000 0.000000 3  1 (  16  21  21)->(  22  22  32   )
 475     21.814 175940.  6  2  0.0000 0.000000 2  1 (  12  21    )->(  22  31       )
 476     21.823 176015.  6  1  0.0000 0.000000 2  1 (  11  21    )->(  22  33       )
 477     21.906 176686.  2  1  0.0000 0.000000 3  1 (  13  21  21)->(  22  22  29   )
 478     21.920 176801.  2  1  0.0000 0.000000 3  1 (  12  21  21)->(  22  22  27   )
 479     22.012 177535.  6  1  0.0000 0.000000 2  1 (  10  21    )->(  22  30       )
 480     22.044 177799.  2  1  0.0000 0.000000 3  1 (  16  21  21)->(  22  22  33   )
 481     22.047 177823.  6  2  0.0000 0.000000 2  1 (  11  21    )->(  22  28       )
 482     22.060 177927.  2  1  0.0000 0.000000 3  1 (  14  21  21)->(  22  22  31   )
 483     22.214 179170.  2  1  0.0000 0.000000 3  1 (  11  21  21)->(  22  22  25   )
 484     22.254 179489.  6  2  0.0000 0.000000 2  1 (  12  21    )->(  22  32       )
 485     22.256 179508.  2  1  0.0000 0.000000 3  1 (  13  21  21)->(  22  22  30   )
 486     22.343 180209.  6  2  0.0000 0.000000 2  1 (  10  21    )->(  22  26       )
 487     22.477 181290.  6  1  0.0000 0.000000 2  1 (  10  21    )->(  22  31       )
 488     22.498 181460.  2  1  0.0000 0.000000 3  1 (  12  21  21)->(  22  22  28   )
 489     22.514 181591.  6  2  0.0000 0.000000 2  1 (  11  21    )->(  22  29       )
 490     22.548 181860.  2  1  0.0000 0.000000 3  1 (  14  21  21)->(  22  22  32   )
 491     22.678 182909.  6  2  0.0000 0.000000 2  1 (  12  21    )->(  22  33       )
 492     22.708 183151.  2  1  0.0000 0.000000 3  1 (  13  21  21)->(  22  22  31   )
 493     22.845 184257.  2  1  0.0000 0.000000 3  1 (  14  21  21)->(  22  22  33   )
 494     22.901 184707.  6  2  0.0000 0.000000 2  1 (  11  21    )->(  22  30       )
 495     22.909 184776.  2  1  0.0000 0.000000 3  1 (  11  21  21)->(  22  22  26   )
 496     22.970 185262.  2  1  0.0000 0.000000 3  1 (  12  21  21)->(  22  22  29   )
 497     23.001 185512.  6  2  0.0000 0.000000 2  1 (  10  21    )->(  22  27       )
 498     23.009 185578.  2  1  0.0000 0.000000 3  1 (  10  21  21)->(  22  22  24   )
 499     23.074 186109.  6  1  0.0000 0.000000 2  1 (  10  21    )->(  22  32       )
 500     23.276 187733.  6  1  0.0000 0.000000 2  1 (  10  21    )->(  22  33       )
 501     23.299 187917.  2  1  0.0000 0.000000 3  1 (  13  21  21)->(  22  22  32   )
 502     23.325 188133.  2  1  0.0000 0.000000 3  1 (  12  21  21)->(  22  22  30   )
 503     23.411 188820.  6  2  0.0000 0.000000 2  1 (  11  21    )->(  22  31       )
 504     23.498 189528.  2  1  0.0000 0.000000 3  1 (  11  21  21)->(  22  22  27   )
 505     23.508 189606.  6  2  0.0000 0.000000 2  1 (  10  21    )->(  22  28       )
 506     23.530 189781.  2  1  0.0000 0.000000 3  1 (  10  21  21)->(  22  22  25   )
 507     23.586 190235.  2  1  0.0000 0.000000 3  1 (  13  21  21)->(  22  22  33   )
 508     23.828 192187.  2  1  0.0000 0.000000 3  1 (  12  21  21)->(  22  22  31   )
 509     23.981 193422.  6  2  0.0000 0.000000 2  1 (  11  21    )->(  22  32       )
 510     24.004 193602.  6  2  0.0000 0.000000 2  1 (  10  21    )->(  22  29       )
 511     24.062 194075.  2  1  0.0000 0.000000 3  1 (  11  21  21)->(  22  22  28   )
 512     24.264 195704.  6  2  0.0000 0.000000 2  1 (  11  21    )->(  22  33       )
 513     24.270 195750.  2  1  0.0000 0.000000 3  1 (  12  21  21)->(  22  22  32   )
 514     24.362 196492.  2  1  0.0000 0.000000 3  1 (  10  21  21)->(  22  22  26   )
 515     24.383 196660.  6  2  0.0000 0.000000 2  1 (  10  21    )->(  22  30       )
 516     24.526 197815.  2  1  0.0000 0.000000 3  1 (  11  21  21)->(  22  22  29   )
 517     24.700 199218.  2  1  0.0000 0.000000 3  1 (  12  21  21)->(  22  22  33   )
 518     24.842 200361.  6  2  0.0000 0.000000 2  1 (  10  21    )->(  22  31       )
 519     24.913 200937.  2  1  0.0000 0.000000 3  1 (  11  21  21)->(  22  22  30   )
 520     25.013 201740.  2  1  0.0000 0.000000 3  1 (  10  21  21)->(  22  22  27   )
 521     25.358 204529.  6  2  0.0000 0.000000 2  1 (  10  21    )->(  22  32       )
 522     25.427 205083.  2  1  0.0000 0.000000 3  1 (  11  21  21)->(  22  22  31   )
 523     25.491 205598.  6  2  0.0000 0.000000 2  1 (  10  21    )->(  22  33       )
 524     25.521 205838.  2  1  0.0000 0.000000 3  1 (  10  21  21)->(  22  22  28   )
 525     25.999 209698.  2  1  0.0000 0.000000 3  1 (  11  21  21)->(  22  22  32   )
 526     26.013 209806.  2  1  0.0000 0.000000 3  1 (  10  21  21)->(  22  22  29   )
 527     26.288 212028.  2  1  0.0000 0.000000 3  1 (  11  21  21)->(  22  22  33   )
 528     26.392 212870.  2  1  0.0000 0.000000 3  1 (  10  21  21)->(  22  22  30   )
 529     26.855 216604.  2  1  0.0000 0.000000 3  1 (  10  21  21)->(  22  22  31   )
 530     27.374 220786.  2  1  0.0000 0.000000 3  1 (  10  21  21)->(  22  22  32   )
 531     27.512 221902.  2  1  0.0000 0.000000 3  1 (  10  21  21)->(  22  22  33   )

 Depression of ground-state after CI=      -8677. cm**-1 Energy= -1399.9544717 eV
 Dipole moment=  0.000000 -0.000000 -0.000000 tot=  0.000000 Debyes


  CI trans.  energy frequency wavelength oscillator ---------polarization---------    dipole   ------components----- 
 st.  symm.    eV      cm-1       nm      strength       x          y         z       moment     x       y       z 

   2      4.6679766    37650.    265.61  0.000000                                   0.000000   0.000   0.000  -0.000
   3      4.8870652    39417.    253.70  1.135342   0.039409  -0.999223   0.000000  0.000000  -0.000  -0.000  -0.000
   4      5.5204049    44525.    224.59  0.000261   0.673780   0.738932   0.000000  0.000000   0.000  -0.000   0.000
   5      6.3288173    51045.    195.90  0.000000                                   0.000000   0.000  -0.000  -0.000
   6      6.5618341    52925.    188.95  0.000006   0.000000   0.000000   1.000000  0.000000   0.000   0.000   0.000
   7      6.7047615    54078.    184.92  0.000000                                   0.000000  -0.000  -0.000  -0.000
   8      7.0213887    56631.    176.58  0.000000                                   0.000000  -0.000  -0.000  -0.000
   9      7.0902330    57187.    174.87  0.000000                                   0.000000   0.000  -0.000  -0.000
  10      7.4856365    60376.    165.63  0.001262   0.000000  -0.000000   1.000000  0.000000  -0.000  -0.000  -0.000
  11      7.8103453    62995.    158.74  0.039504   0.055266  -0.998472  -0.000000  0.000000  -0.000  -0.000   0.000
  12      7.8146872    63030.    158.65  0.000000                                   0.000000  -0.000   0.000  -0.000
  13      8.0757296    65135.    153.53  0.166880  -0.000000   0.000000  -1.000000  0.000000  -0.000  -0.000   0.000
  14      8.1023435    65350.    153.02  0.000620  -0.000000   0.000000  -1.000000  0.000000   0.000  -0.000  -0.000
  15      8.1122210    65430.    152.84  0.231404   0.549136  -0.835733  -0.000000  0.000000   0.000   0.000  -0.000
  16      8.5050521    68598.    145.78  0.000000                                   0.000000  -0.000   0.000  -0.000
  17      8.5392820    68874.    145.19  0.016388   0.133915   0.990993   0.000000  0.000000   0.000  -0.000  -0.000
  18      8.5461017    68929.    145.08  0.000000                                   0.000000   0.000  -0.000  -0.000
  19      8.5832454    69229.    144.45  0.000000                                   0.000000  -0.000   0.000  -0.000
  20      8.6019652    69380.    144.13  0.000123   0.000000   0.000000  -1.000000  0.000000   0.000  -0.000   0.000
  21      8.6973149    70149.    142.55  0.000000                                   0.000000  -0.000  -0.000   0.000
  22      8.8311091    71228.    140.39  0.001077   0.000000  -0.000000  -1.000000  0.000000   0.000  -0.000   0.000
  23      9.0046853    72628.    137.69  0.011726   0.425252  -0.905075   0.000000  0.000000   0.000   0.000   0.000
  24      9.0703481    73157.    136.69  0.000000                                   0.000000  -0.000  -0.000   0.000
  25      9.0950427    73357.    136.32  0.000169  -0.000000   0.000000  -1.000000  0.000000   0.000  -0.000  -0.000
  26      9.2782117    74834.    133.63  0.000000                                   0.000000  -0.000  -0.000  -0.000
  27      9.4925129    76562.    130.61  0.007402  -0.000000  -0.000000   1.000000  0.000000   0.000   0.000  -0.000
  28      9.5298559    76864.    130.10  0.000000                                   0.000000  -0.000  -0.000  -0.000
  29      9.5447084    76983.    129.90  0.000000                                   0.000000   0.000   0.000   0.000
  30      9.6141150    77543.    128.96  0.000000                                   0.000000   0.000   0.000  -0.000
  31      9.6943355    78190.    127.89  0.000000                                   0.000000   0.000  -0.000   0.000
  32      9.7044513    78272.    127.76  0.026969  -0.280080   0.959977  -0.000000  0.000000  -0.000  -0.000   0.000
  33      9.8510523    79454.    125.86  0.000000                                   0.000000   0.000   0.000   0.000
  34      9.9413983    80183.    124.71  0.000128   0.000000  -0.000000  -1.000000  0.000000   0.000  -0.000  -0.000
[...]
    Config     413  -0.11729642  0.01375845
    Config     417  -0.07657550  0.00586381
    Config     421  -0.29965554  0.08979344
    Config     429  -0.07769130  0.00603594
    Config     433  -0.06967382  0.00485444
    Config     440  -0.06458126  0.00417074
    Config     447   0.10799349  0.01166259
    Config     453   0.14965055  0.02239529
    Config     459  -0.07134244  0.00508974
    Config     462   0.23877181  0.05701198
    Config     463  -0.07500172  0.00562526
    Config     474  -0.04975674  0.00247573
    Config     475   0.10590575  0.01121603
    Config     482   0.26300876  0.06917361
    Config     485   0.07517217  0.00565086
    Config     486  -0.13238719  0.01752637
    Config     491   0.21223836  0.04504512
    Config     493   0.20504731  0.04204440
    Config     494  -0.07318737  0.00535639
    Config     499   0.06307871  0.00397892
    Config     502   0.09967143  0.00993439
    Config     504  -0.18727982  0.03507373
    Config     505  -0.27221760  0.07410242
    Config     509   0.07368104  0.00542890
    Config     513   0.06097771  0.00371828
    Config     515   0.10081801  0.01016427
    Config     516  -0.04763377  0.00226898
    Config     520  -0.15591006  0.02430795
    Config     522   0.09761050  0.00952781
    Config     526  -0.09592873  0.00920232
    Config     527   0.07592042  0.00576391
    Config     529   0.05781042  0.00334204
    Config     531   0.12078613  0.01458929
 Total coeff printed             0.97717508
  
State  495 24.9419     CI coeff  CI percent
    Config     126   0.07615781  0.00580001
    Config     145  -0.05527076  0.00305486
    Config     165  -0.08057090  0.00649167
    Config     229  -0.11335488  0.01284933
    Config     241  -0.05928775  0.00351504
    Config     310   0.05480249  0.00300331
    Config     322  -0.07633912  0.00582766
    Config     345   0.08441729  0.00712628
    Config     356  -0.23324057  0.05440116
    Config     370  -0.04958838  0.00245901
    Config     374  -0.04878041  0.00237953
    Config     380  -0.10092179  0.01018521
    Config     386  -0.06945196  0.00482357
    Config     395  -0.06700102  0.00448914
    Config     405  -0.05804685  0.00336944
    Config     412   0.11264788  0.01268954
    Config     413  -0.07359397  0.00541607
    Config     421  -0.11025501  0.01215617
    Config     422   0.22216103  0.04935553
    Config     429   0.06327439  0.00400365
    Config     433  -0.04099970  0.00168098
    Config     440  -0.15375355  0.02364016
    Config     442  -0.13750350  0.01890721
    Config     447  -0.05120722  0.00262218
    Config     451  -0.25902916  0.06709611
    Config     462   0.04993181  0.00249319
    Config     463  -0.04480718  0.00200768
    Config     467   0.05218759  0.00272354
    Config     474  -0.05469966  0.00299205
    Config     481  -0.09260612  0.00857589
    Config     485  -0.36814949  0.13553405
    Config     488  -0.11784983  0.01388858
    Config     491   0.08715473  0.00759595
    Config     493   0.15608965  0.02436398
    Config     494   0.08462353  0.00716114
    Config     501   0.07129451  0.00508291
    Config     505   0.20796485  0.04324938
    Config     509  -0.25797547  0.06655134
    Config     513  -0.05685248  0.00323220
    Config     515   0.21838598  0.04769244
    Config     516   0.41383520  0.17125957
    Config     520  -0.18462004  0.03408456
    Config     521  -0.12643721  0.01598637
    Config     522  -0.05662812  0.00320674
    Config     526   0.20571048  0.04231680
    Config     527  -0.07928408  0.00628597
 Total coeff printed             0.97362714
  
State  496 24.9936     CI coeff  CI percent
    Config     102  -0.06307621  0.00397861
    Config     104  -0.05815448  0.00338194
    Config     151   0.06407945  0.00410618
    Config     210   0.06736786  0.00453843
    Config     214   0.05603049  0.00313942
    Config     268   0.10173901  0.01035083
    Config     270  -0.06064407  0.00367770
    Config     316   0.07181994  0.00515810
    Config     323   0.04018607  0.00161492
    Config     326  -0.12708501  0.01615060
    Config     340   0.16873875  0.02847277
    Config     342  -0.05812801  0.00337886
    Config     376   0.07242884  0.00524594
    Config     377   0.05838462  0.00340876
    Config     378  -0.04439503  0.00197092
    Config     385  -0.07685149  0.00590615
    Config     391  -0.09897724  0.00979649
    Config     393  -0.16960703  0.02876655
    Config     396  -0.16702588  0.02789764
    Config     416  -0.06370664  0.00405854
    Config     418  -0.12856082  0.01652788
    Config     419  -0.09184298  0.00843513
    Config     426   0.07461753  0.00556778
    Config     427   0.07552957  0.00570472
    Config     434   0.05574854  0.00310790
    Config     435   0.11770355  0.01385412
    Config     443   0.19066496  0.03635313
    Config     445  -0.07027329  0.00493834
    Config     446  -0.07364307  0.00542330
    Config     454  -0.04071906  0.00165804
    Config     456   0.11801397  0.01392730
    Config     461  -0.04463615  0.00199239
    Config     464  -0.11111245  0.01234598
    Config     477  -0.12144566  0.01474905
    Config     478   0.15808673  0.02499141
    Config     480   0.21328972  0.04549250
    Config     484  -0.04143522  0.00171688
    Config     487  -0.04939216  0.00243959
    Config     490  -0.06175912  0.00381419
    Config     492   0.05230709  0.00273603
    Config     495   0.05136042  0.00263789
    Config     497  -0.06823225  0.00465564
    Config     500   0.04302675  0.00185130
    Config     503   0.10855786  0.01178481
    Config     507   0.08300802  0.00689033
    Config     508  -0.33482661  0.11210886
    Config     510   0.16417956  0.02695493
    Config     511   0.24753525  0.06127370
    Config     512  -0.09283230  0.00861784
    Config     514  -0.14245504  0.02029344
    Config     517  -0.21686137  0.04702885
    Config     518  -0.41255881  0.17020477
    Config     523  -0.16892785  0.02853662
    Config     524   0.23662883  0.05599320
    Config     525  -0.09417666  0.00886924
    Config     528   0.07189584  0.00516901
 Total coeff printed             0.97364544
  
State  497 25.2302     CI coeff  CI percent
    Config     107   0.04344370  0.00188735
    Config     163  -0.07593584  0.00576625
    Config     202   0.07312555  0.00534735
    Config     229   0.04423399  0.00195665
    Config     241  -0.08090203  0.00654514
    Config     294  -0.06503683  0.00422979
    Config     322   0.06486337  0.00420726
    Config     335  -0.04221631  0.00178222
    Config     345   0.05847187  0.00341896
    Config     356   0.05692792  0.00324079
    Config     370   0.17176027  0.02950159
    Config     380   0.04359862  0.00190084
    Config     394   0.08156293  0.00665251
    Config     395   0.06632572  0.00439910
    Config     400   0.10927640  0.01194133
    Config     412  -0.09789416  0.00958327
    Config     417  -0.18259584  0.03334124
    Config     421  -0.05065367  0.00256579
    Config     422  -0.08859806  0.00784962
    Config     433   0.09041647  0.00817514
    Config     439   0.08612802  0.00741804
    Config     440  -0.06175719  0.00381395
    Config     442   0.05890702  0.00347004
    Config     449   0.09623309  0.00926081
    Config     450  -0.24524451  0.06014487
    Config     451   0.09850718  0.00970367
    Config     453  -0.04114105  0.00169259
    Config     462  -0.05857492  0.00343102
    Config     463   0.08917840  0.00795279
    Config     471   0.04278906  0.00183090
    Config     474   0.23991240  0.05755796
    Config     475   0.04382734  0.00192084
    Config     482   0.11646530  0.01356417
    Config     485   0.09694210  0.00939777
    Config     486   0.11014451  0.01213181
    Config     488  -0.17963739  0.03226959
    Config     491  -0.10219531  0.01044388
    Config     493   0.10046500  0.01009322
    Config     494   0.05194891  0.00269869
    Config     499   0.04129214  0.00170504
    Config     504   0.04094925  0.00167684
    Config     505   0.22295422  0.04970859
    Config     509  -0.22017423  0.04847669
    Config     513   0.38494474  0.14818245
    Config     515   0.10962848  0.01201840
    Config     516  -0.09779794  0.00956444
    Config     520  -0.16069262  0.02582212
    Config     521   0.36619389  0.13409797
    Config     522   0.21611967  0.04670771
    Config     526   0.27163314  0.07378456
    Config     527  -0.04256346  0.00181165
    Config     531  -0.04501576  0.00202642
 Total coeff printed             0.96867164
  
State  498 25.2368     CI coeff  CI percent
    Config     140  -0.05533973  0.00306249
    Config     157  -0.06293693  0.00396106
    Config     174  -0.04941625  0.00244197
    Config     188  -0.06912336  0.00477804
    Config     214   0.06745206  0.00454978
    Config     253  -0.09814137  0.00963173
    Config     342   0.06370666  0.00405854
    Config     354  -0.06853694  0.00469731
    Config     358  -0.04326093  0.00187151
    Config     376   0.14211703  0.02019725
    Config     377  -0.16556775  0.02741268
    Config     392  -0.04462050  0.00199099
    Config     397   0.07935219  0.00629677
    Config     402  -0.04917807  0.00241848
    Config     404  -0.18064106  0.03263119
    Config     426  -0.10072726  0.01014598
    Config     435  -0.17327213  0.03002323
    Config     443  -0.04989251  0.00248926
    Config     445  -0.04900660  0.00240165
    Config     446  -0.22932424  0.05258961
    Config     448  -0.04357067  0.00189840
    Config     454  -0.08239106  0.00678829
    Config     456  -0.15713530  0.02469150
    Config     460  -0.08793658  0.00773284
    Config     464  -0.04805315  0.00230911
    Config     465  -0.19906603  0.03962728
    Config     477   0.05136784  0.00263866
    Config     480   0.22418078  0.05025702
    Config     484  -0.07774781  0.00604472
    Config     489   0.08864594  0.00785810
    Config     492  -0.26806353  0.07185806
    Config     495   0.04717743  0.00222571
    Config     500   0.04110944  0.00168999
    Config     503   0.17189295  0.02954718
    Config     508  -0.15496587  0.02401442
    Config     510   0.04306147  0.00185429
    Config     517   0.43478482  0.18903784
    Config     518  -0.11027925  0.01216151
    Config     519  -0.29062094  0.08446053
    Config     523   0.37973078  0.14419547
    Config     525  -0.21105011  0.04454215
 Total coeff printed             0.98308258
  
State  499 25.2402     CI coeff  CI percent
    Config      45   0.04565401  0.00208429
    Config      59  -0.04791493  0.00229584
    Config      69  -0.09190354  0.00844626
    Config      76  -0.04017990  0.00161442
    Config     105  -0.04780261  0.00228509
    Config     108  -0.12851373  0.01651578
    Config     159  -0.04024767  0.00161987
    Config     178   0.08280787  0.00685714
    Config     196  -0.08548174  0.00730713
    Config     200  -0.04294530  0.00184430
    Config     206   0.19960291  0.03984132
    Config     254  -0.13298677  0.01768548
    Config     259   0.11406801  0.01301151
    Config     275  -0.07306573  0.00533860
    Config     284   0.30032044  0.09019236
    Config     301  -0.11794729  0.01391156
    Config     312  -0.20086992  0.04034873
    Config     329  -0.13502116  0.01823071
    Config     330   0.05320944  0.00283124
    Config     331   0.05606791  0.00314361
    Config     338  -0.10468004  0.01095791
    Config     371   0.19124984  0.03657650
    Config     398  -0.34644761  0.12002595
    Config     409  -0.17402547  0.03028486
    Config     430   0.34843766  0.12140881
    Config     441  -0.06345337  0.00402633
    Config     470   0.60392386  0.36472403
    Config     498  -0.04679409  0.00218969
 Total coeff printed             0.98559934
  
State  500 25.3454     CI coeff  CI percent
    Config      48  -0.04149121  0.00172152
    Config      54   0.04254647  0.00181020
    Config      94   0.14018983  0.01965319
    Config     149  -0.09452692  0.00893534
    Config     166   0.07983356  0.00637340
    Config     191  -0.09479593  0.00898627
    Config     203  -0.08427031  0.00710149
    Config     226  -0.04834770  0.00233750
    Config     232  -0.04288098  0.00183878
    Config     233  -0.17921788  0.03211905
    Config     242   0.12487368  0.01559344
    Config     248  -0.07659311  0.00586651
    Config     278  -0.12034362  0.01448259
    Config     283  -0.10698814  0.01144646
    Config     293  -0.04458741  0.00198804
    Config     296   0.12177050  0.01482806
    Config     320   0.26604601  0.07078048
    Config     367   0.05065644  0.00256608
    Config     368   0.10595433  0.01122632
    Config     373   0.35076407  0.12303543
    Config     379  -0.17105151  0.02925862
    Config     406   0.36688142  0.13460198
    Config     407   0.08023296  0.00643733
    Config     420  -0.20806933  0.04329284
    Config     483  -0.63412053  0.40210884
    Config     506   0.07393375  0.00546620
 Total coeff printed             0.98385592
  

 -------------------------------------------------------------------------------
 INDO MRCI C.I.=(24,12)




     1SCF WAS SPECIFIED, SO BFGS WAS NOT USED                 
     SCF FIELD WAS ACHIEVED                                   


                              INDO CALCULATION
                                                       MOPAC2016 (Version: 20.173L)
                                                       Tue Jul  7 10:19:14 2020




          FINAL HEAT OF FORMATION =     -30370.74200 KCAL/MOL = -127071.18454 KJ/MOL


          TOTAL ENERGY            =      -1398.87867 EV
          ELECTRONIC ENERGY       =      -4434.97073 EV  POINT GROUP:     C2h 
          CORE-CORE REPULSION     =       3036.09207 EV
          COSMO AREA              =        178.91 SQUARE ANGSTROMS
          COSMO VOLUME            =        165.66 CUBIC ANGSTROMS

          IONIZATION POTENTIAL    =          7.425806 EV
          HOMO LUMO ENERGIES (EV) =         -7.426 -0.455
          NO. OF FILLED LEVELS    =         21
          MOLECULAR WEIGHT        =        106.1670

          MOLECULAR DIMENSIONS (Angstroms)

            Atom       Atom       Distance
            H    18    H     9    10.50130
            H    17    H    10     3.17092
            C     1    C     2     0.00000


          SCF CALCULATIONS        =          1
 
          WALL-CLOCK TIME         =          7.836 SECONDS
          COMPUTATION TIME        =         10.055 SECONDS




   ATOM   CHEMICAL          X               Y               Z
  NUMBER   SYMBOL      (ANGSTROMS)     (ANGSTROMS)     (ANGSTROMS)
 
     1       C          0.13642800  *   4.31261200  *   0.00000000  *
     2       C          0.65084500  *   3.07095700  *   0.00000000  *
     3       C         -0.13642800  *   1.85596900  *   0.00000000  *
     4       C          0.38926300  *   0.60631000  *   0.00000000  *
     5       C         -0.38926300  *  -0.60631000  *   0.00000000  *
     6       C          0.13642800  *  -1.85596900  *   0.00000000  *
     7       C         -0.65084500  *  -3.07095700  *   0.00000000  *
     8       C         -0.13642800  *  -4.31261200  *   0.00000000  *
     9       H          0.77042500  *   5.19381900  *   0.00000000  *
    10       H         -0.93776100  *   4.48341300  *   0.00000000  *
    11       H          1.73423700  *   2.94537900  *   0.00000000  *
    12       H         -1.22106200  *   1.97279000  *   0.00000000  *
    13       H          1.47457700  *   0.49428800  *   0.00000000  *
    14       H         -1.47457700  *  -0.49428800  *   0.00000000  *
    15       H          1.22106200  *  -1.97279000  *   0.00000000  *
    16       H         -1.73423700  *  -2.94537900  *   0.00000000  *
    17       H          0.93776100  *  -4.48341300  *   0.00000000  *
    18       H         -0.77042500  *  -5.19381900  *   0.00000000  *

                             CARTESIAN COORDINATES

   1    C        0.136428000     4.312612000     0.000000000
   2    C        0.650845000     3.070957000     0.000000000
   3    C       -0.136428000     1.855969000     0.000000000
   4    C        0.389263000     0.606310000     0.000000000
   5    C       -0.389263000    -0.606310000     0.000000000
   6    C        0.136428000    -1.855969000     0.000000000
   7    C       -0.650845000    -3.070957000     0.000000000
   8    C       -0.136428000    -4.312612000     0.000000000
   9    H        0.770425000     5.193819000     0.000000000
  10    H       -0.937761000     4.483413000     0.000000000
  11    H        1.734237000     2.945379000     0.000000000
  12    H       -1.221062000     1.972790000     0.000000000
  13    H        1.474577000     0.494288000     0.000000000
  14    H       -1.474577000    -0.494288000     0.000000000
  15    H        1.221062000    -1.972790000     0.000000000
  16    H       -1.734237000    -2.945379000     0.000000000
  17    H        0.937761000    -4.483413000     0.000000000
  18    H       -0.770425000    -5.193819000     0.000000000


           Empirical Formula: C8 H10  =    18 atoms



      MOLECULAR POINT GROUP   :   C2h 


                  EIGENVALUES  
 -40.18409 -38.11453 -35.02602 -31.26250 -26.60496 -24.72015 -22.86493 -22.65749
 -20.09911 -18.94038 -17.37719 -15.84646 -14.72784 -13.99746 -13.28861 -13.16947
 -12.70067 -12.63575 -11.37526  -9.49409  -7.42581  -0.45492   1.09247   2.22090
   2.85863   3.02519   3.53446   4.03389   4.45343   4.82278   5.36732   5.94660
   6.34063   7.61307   7.63118   8.34458   8.72193   9.01224   9.66639  10.57406
  12.22329  13.98093


              NET ATOMIC CHARGES AND DIPOLE CONTRIBUTIONS

  ATOM NO.   TYPE          CHARGE      No. of ELECS.   s-Pop       p-Pop       
    1          C          -0.068530        4.0685     1.11232     2.95621
    2          C          -0.014271        4.0143     1.08070     2.93357
    3          C          -0.024494        4.0245     1.08495     2.93954
    4          C          -0.023249        4.0232     1.08499     2.93826
    5          C          -0.023249        4.0232     1.08499     2.93826
    6          C          -0.024494        4.0245     1.08495     2.93954
    7          C          -0.014271        4.0143     1.08070     2.93357
    8          C          -0.068530        4.0685     1.11232     2.95621
    9          H           0.023504        0.9765     0.97650
   10          H           0.026372        0.9736     0.97363
   11          H           0.026948        0.9731     0.97305
   12          H           0.027216        0.9728     0.97278
   13          H           0.026504        0.9735     0.97350
   14          H           0.026504        0.9735     0.97350
   15          H           0.027216        0.9728     0.97278
   16          H           0.026948        0.9731     0.97305
   17          H           0.026372        0.9736     0.97363
   18          H           0.023504        0.9765     0.97650
 DIPOLE           X         Y         Z       TOTAL
 POINT-CHG.     0.000    -0.000     0.000     0.000
 HYBRID         0.000     0.000    -0.000     0.000
 SUM            0.000    -0.000    -0.000     0.000


          ATOMIC ORBITAL ELECTRON POPULATIONS

     Atom    s        px        py        pz   
    1  C   1.11232   0.96406   0.97212   1.02003
    2  C   1.08070   0.96307   0.98799   0.98251
    3  C   1.08495   0.96147   0.97725   1.00082
    4  C   1.08499   0.96224   0.97939   0.99663
    5  C   1.08499   0.96224   0.97939   0.99663
    6  C   1.08495   0.96147   0.97725   1.00082
    7  C   1.08070   0.96307   0.98799   0.98251
    8  C   1.11232   0.96406   0.97212   1.02003
    9  H   0.97650
   10  H   0.97363
   11  H   0.97305
   12  H   0.97278
   13  H   0.97350
   14  H   0.97350
   15  H   0.97278
   16  H   0.97305
   17  H   0.97363
   18  H   0.97650

 **********************
 *                    *
 * JOB ENDED NORMALLY *
 *                    *
 **********************



 TOTAL JOB TIME:             7.88 SECONDS

 == MOPAC DONE ==
