 *******************************************************************************
 **                                                                           **
 **                              MOPAC v22.0.6                                **
 **                                                                           **
 *******************************************************************************
 **          Digital Object Identifier (DOI): 10.5281/zenodo.6511958          **
 **    Visit the DOI location for information on how to cite this program.    **
 *******************************************************************************

                              INDO CALCULATION RESULTS

 *******************************************************************************
 *  CALCULATION DONE:                                Wed Jul 12 16:25:18 2023  *
 *  INDO       - The INDO Hamiltonian to be used
 *  CIS        - C.I. USES 1 ELECTRON EXCITATIONS ONLY
 *  C.I.=(N,M) - 20 DOUBLY FILLED LEVELS USED IN A C.I. INVOLVING 40 M.O.'S
 *  T=         - A TIME OF 172800.0 SECONDS REQUESTED
 *  DUMP=N     - RESTART FILE WRITTEN EVERY 7200.0 SECONDS REQUESTED
 *******************************************************************************
INDO CIS C.I.=(40,20)
 Ag20

   ATOM   CHEMICAL          X               Y               Z
  NUMBER   SYMBOL      (ANGSTROMS)     (ANGSTROMS)     (ANGSTROMS)

     1      Ag         -4.18425000  *  -2.41578000  *  -1.70821000  *
     2      Ag         -1.38662000  *  -2.52547000  *  -1.78578000  *
     3      Ag          1.38662000  *  -2.52547000  *  -1.78578000  *
     4      Ag          4.18425000  *  -2.41578000  *  -1.70821000  *
     5      Ag         -2.88043000  *   0.06189000  *  -1.78578000  *
     6      Ag          0.00000000  *   0.00000000  *  -1.89153000  *
     7      Ag          2.88043000  *   0.06189000  *  -1.78578000  *
     8      Ag         -1.49381000  *   2.46358000  *  -1.78578000  *
     9      Ag          1.49381000  *   2.46358000  *  -1.78578000  *
    10      Ag          0.00000000  *   4.83155000  *  -1.70821000  *
    11      Ag         -2.88043000  *  -1.66302000  *   0.65361000  *
    12      Ag          0.00000000  *  -1.78335000  *   0.63051000  *
    13      Ag          2.88043000  *  -1.66302000  *   0.65361000  *
    14      Ag         -1.54443000  *   0.89167000  *   0.63051000  *
    15      Ag          1.54443000  *   0.89167000  *   0.63051000  *
    16      Ag          0.00000000  *   3.32604000  *   0.65361000  *
    17      Ag         -1.49381000  *  -0.86245000  *   2.91795000  *
    18      Ag          1.49381000  *  -0.86245000  *   2.91795000  *
    19      Ag          0.00000000  *   1.72491000  *   2.91795000  *
    20      Ag          0.00000000  *   0.00000000  *   5.12463000  *



          CARTESIAN COORDINATES 

    NO.       ATOM           X           Y           Z

     1        Ag         -4.1842     -2.4158     -1.7082
     2        Ag         -1.3866     -2.5255     -1.7858
     3        Ag          1.3866     -2.5255     -1.7858
     4        Ag          4.1842     -2.4158     -1.7082
     5        Ag         -2.8804      0.0619     -1.7858
     6        Ag          0.0000      0.0000     -1.8915
     7        Ag          2.8804      0.0619     -1.7858
     8        Ag         -1.4938      2.4636     -1.7858
     9        Ag          1.4938      2.4636     -1.7858
    10        Ag          0.0000      4.8316     -1.7082
    11        Ag         -2.8804     -1.6630      0.6536
    12        Ag          0.0000     -1.7833      0.6305
    13        Ag          2.8804     -1.6630      0.6536
    14        Ag         -1.5444      0.8917      0.6305
    15        Ag          1.5444      0.8917      0.6305
    16        Ag          0.0000      3.3260      0.6536
    17        Ag         -1.4938     -0.8625      2.9180
    18        Ag          1.4938     -0.8625      2.9180
    19        Ag          0.0000      1.7249      2.9180
    20        Ag          0.0000      0.0000      5.1246

           Empirical Formula: Ag20  =    20 atoms



      MOLECULAR POINT GROUP   :   Td  


      RHF CALCULATION, NO. OF DOUBLY OCCUPIED LEVELS = 110

 WARNING: INDO only performs single-point calculations

 Summary of symmetry occupancy in each shell:

 SHELL     
    1  110
    v   70
 TOTAL 180


                     MOLECULAR ORBITALS 






    ROOT NO.    1           2           3           4           5           6

           -18.94841   -16.33519   -16.33442   -16.33434   -15.50368   -15.50352
  
  
  S Ag   1   0.05358    -0.01470    -0.05469    -0.08008    -0.00021    -0.00024
 PX Ag   1   0.03361    -0.01255    -0.04667    -0.05071    -0.00019    -0.01732
 PY Ag   1   0.01940    -0.01334    -0.01042    -0.03945    -0.01725     0.01958
 PZ Ag   1   0.01372     0.01139    -0.01296    -0.02785     0.02412     0.01387
 Z2 Ag   1  -0.01997     0.04184     0.04426     0.04688     0.07184     0.04167
 X2 Ag   1   0.02306    -0.00412    -0.07969    -0.04270     0.04122    -0.07386
 XY Ag   1   0.03994    -0.03629    -0.05889    -0.12267    -0.02623     0.04084
 XZ Ag   1   0.02822     0.01473    -0.05239    -0.08653     0.03581     0.02885
 YZ Ag   1   0.01630     0.00595    -0.02334    -0.05429     0.02908     0.00209
  
  S Ag   2   0.15221    -0.03973    -0.14791    -0.10420    -0.00014    -0.05839
 PX Ag   2   0.03065    -0.00317    -0.01186     0.05386     0.00019    -0.05810
 PY Ag   2   0.08388    -0.04515    -0.07256    -0.08194     0.01108    -0.01625
 PZ Ag   2   0.05930     0.01881    -0.06492    -0.05790    -0.01588    -0.01124
 Z2 Ag   2  -0.02374     0.07593     0.05024     0.00465    -0.05810     0.11344
 X2 Ag   2  -0.02150     0.02074    -0.05686     0.08291    -0.03384    -0.18116
 XY Ag   2   0.03220    -0.02264    -0.02082     0.10844     0.02004    -0.12844
 XZ Ag   2   0.02274     0.01773    -0.02370     0.07641    -0.02742    -0.09003
 YZ Ag   2   0.08878    -0.00145    -0.10053    -0.12924    -0.02390    -0.01995
  
  S Ag   3   0.15221    -0.03973    -0.14791     0.10420     0.00014    -0.05839
 PX Ag   3  -0.03065     0.00317     0.01186     0.05386     0.00019     0.05810
 PY Ag   3   0.08388    -0.04515    -0.07256     0.08194    -0.01108    -0.01625
 PZ Ag   3   0.05930     0.01881    -0.06492     0.05790     0.01588    -0.01124
 Z2 Ag   3  -0.02374     0.07593     0.05024    -0.00465     0.05810     0.11344
 X2 Ag   3  -0.02150     0.02074    -0.05686    -0.08291     0.03384    -0.18116
 XY Ag   3  -0.03220     0.02264     0.02082     0.10844     0.02004     0.12844
 XZ Ag   3  -0.02274    -0.01773     0.02370     0.07641    -0.02742     0.09003
 YZ Ag   3   0.08878    -0.00145    -0.10053     0.12924     0.02390    -0.01995
  
  S Ag   4   0.05358    -0.01470    -0.05469     0.08008     0.00021    -0.00024
 PX Ag   4  -0.03361     0.01255     0.04667    -0.05071    -0.00019     0.01732
 PY Ag   4   0.01940    -0.01334    -0.01042     0.03945     0.01725     0.01958
 PZ Ag   4   0.01372     0.01139    -0.01296     0.02785    -0.02412     0.01387
 Z2 Ag   4  -0.01997     0.04184     0.04426    -0.04688    -0.07184     0.04167
 X2 Ag   4   0.02306    -0.00412    -0.07969     0.04270    -0.04122    -0.07386
 XY Ag   4  -0.03994     0.03629     0.05889    -0.12267    -0.02623    -0.04084
 XZ Ag   4  -0.02822    -0.01473     0.05239    -0.08653     0.03581    -0.02885
 YZ Ag   4   0.01630     0.00595    -0.02334     0.05429    -0.02908     0.00209
  
  S Ag   5   0.15221    -0.07337    -0.05659    -0.16044    -0.05072     0.02872
 PX Ag   5   0.08797    -0.05366    -0.03352    -0.06575    -0.03257     0.02988
 PY Ag   5  -0.01540     0.00269     0.07251     0.05900    -0.03940     0.01669
 PZ Ag   5   0.05931     0.00121    -0.01714    -0.08740    -0.01784    -0.00834
 Z2 Ag   5  -0.02374     0.08540     0.02456     0.02037     0.06885    -0.10711
 X2 Ag   5   0.03864    -0.03522     0.02474     0.04364    -0.00114     0.04039
 XY Ag   5  -0.00252    -0.06128     0.12476     0.01250    -0.20154     0.09387
 XZ Ag   5   0.08822    -0.01979    -0.02422    -0.11936    -0.07176     0.00138
 YZ Ag   5  -0.02458    -0.01152     0.10448     0.08435    -0.06559     0.02410
  
  S Ag   6   0.28973    -0.16408    -0.06040     0.00000    -0.00000     0.00003
 PX Ag   6  -0.00000     0.00000     0.00000     0.15917     0.07157    -0.00000
 PY Ag   6   0.00000    -0.05500     0.14937    -0.00000     0.00000     0.07155
 PZ Ag   6   0.14962    -0.04269    -0.01572     0.00000    -0.00000     0.00004
 Z2 Ag   6   0.01395     0.17143     0.06319    -0.00000     0.00000     0.00013
 X2 Ag   6  -0.00000     0.03579    -0.09723     0.00000     0.00000     0.30889
 XY Ag   6   0.00000    -0.00000    -0.00000    -0.10352     0.30988    -0.00000
 XZ Ag   6  -0.00000     0.00000     0.00000     0.29462     0.10194    -0.00000
 YZ Ag   6  -0.00001    -0.10173     0.27643    -0.00000     0.00000     0.10160
  
  S Ag   7   0.15221    -0.07337    -0.05659     0.16044     0.05072     0.02872
 PX Ag   7  -0.08797     0.05366     0.03352    -0.06575    -0.03257    -0.02988
 PY Ag   7  -0.01540     0.00269     0.07251    -0.05900     0.03940     0.01669
 PZ Ag   7   0.05931     0.00121    -0.01714     0.08740     0.01784    -0.00834
 Z2 Ag   7  -0.02374     0.08540     0.02456    -0.02037    -0.06885    -0.10711
 X2 Ag   7   0.03864    -0.03522     0.02474    -0.04364     0.00114     0.04039
 XY Ag   7   0.00252     0.06128    -0.12476     0.01250    -0.20154    -0.09387
 XZ Ag   7  -0.08822     0.01979     0.02422    -0.11936    -0.07176    -0.00138
 YZ Ag   7  -0.02458    -0.01152     0.10448    -0.08435     0.06559     0.02410
  
  S Ag   8   0.15221    -0.13577     0.11283    -0.05622    -0.05050     0.02955
 PX Ag   8   0.05732    -0.08776     0.07961     0.01394     0.00835    -0.01546
 PY Ag   8  -0.06849     0.04174     0.00199     0.03311     0.05363    -0.02421
 PZ Ag   8   0.05931    -0.03351     0.07706    -0.02947    -0.00189     0.01952
 Z2 Ag   8  -0.02374     0.08809     0.01704     0.01577     0.12717    -0.00637
 X2 Ag   8  -0.01714    -0.01030     0.09963     0.10271     0.17548    -0.10036
 XY Ag   8  -0.03472     0.01037     0.01241    -0.04913    -0.06044     0.08050
 XZ Ag   8   0.06542    -0.08974     0.14121     0.01721     0.02810    -0.00791
 YZ Ag   8  -0.06400     0.02173    -0.02811     0.06281     0.05894    -0.07483
  
  S Ag   9   0.15221    -0.13577     0.11283     0.05622     0.05050     0.02955
 PX Ag   9  -0.05732     0.08776    -0.07961     0.01394     0.00835     0.01546
 PY Ag   9  -0.06849     0.04174     0.00199    -0.03311    -0.05363    -0.02421
 PZ Ag   9   0.05931    -0.03351     0.07706     0.02947     0.00189     0.01952
 Z2 Ag   9  -0.02374     0.08809     0.01704    -0.01577    -0.12717    -0.00637
 X2 Ag   9  -0.01714    -0.01030     0.09962    -0.10271    -0.17548    -0.10036
 XY Ag   9   0.03472    -0.01037    -0.01241    -0.04913    -0.06044    -0.08050
 XZ Ag   9  -0.06542     0.08974    -0.14121     0.01721     0.02810     0.00791
 YZ Ag   9  -0.06400     0.02173    -0.02811    -0.06281    -0.05894    -0.07483
  
  S Ag  10   0.05358    -0.06265     0.07549    -0.00000     0.00000     0.00045
 PX Ag  10  -0.00000     0.00000     0.00000     0.01762     0.02964    -0.00000
 PY Ag  10  -0.03881     0.05565    -0.05786     0.00000    -0.00000    -0.01037
 PZ Ag  10   0.01373    -0.00531     0.03240    -0.00000    -0.00000    -0.02775
 Z2 Ag  10  -0.01996     0.06988    -0.03194     0.00000    -0.00000    -0.08310
 X2 Ag  10  -0.04612     0.10985    -0.11659     0.00000    -0.00000    -0.00302
 XY Ag  10   0.00000    -0.00000    -0.00000    -0.04871    -0.09756     0.00000
 XZ Ag  10  -0.00000     0.00000     0.00000     0.00741    -0.01458     0.00000
 YZ Ag  10  -0.03258     0.04541    -0.10897     0.00000    -0.00000     0.05206
  
  S Ag  11   0.15221     0.03514    -0.08576    -0.16041     0.05053     0.02909
 PX Ag  11   0.08797     0.02963    -0.05593    -0.06578     0.03275     0.03032
 PY Ag  11   0.05079     0.00230     0.00795    -0.06275     0.03019    -0.00222
 PZ Ag  11  -0.03430     0.03529     0.06517     0.08476     0.03154     0.01846
 Z2 Ag  11  -0.00842    -0.04669    -0.07036    -0.08633    -0.01592    -0.00966
 X2 Ag  11   0.04751     0.05151    -0.07399    -0.01807     0.03280     0.09803
 XY Ag  11   0.08229     0.04329    -0.00328    -0.10813     0.13546     0.03281
 XZ Ag  11  -0.03175     0.10719     0.08315     0.05156     0.16571     0.08809
 YZ Ag  11  -0.01834     0.06865     0.02987     0.04105     0.08815     0.06468
  
  S Ag  12   0.28973     0.11164    -0.13456     0.00000     0.00000     0.00087
 PX Ag  12  -0.00000     0.00000     0.00000     0.15923    -0.07184     0.00000
 PY Ag  12   0.14107     0.06814     0.00087    -0.00000     0.00000     0.02392
 PZ Ag  12  -0.04988     0.10579     0.10752    -0.00000     0.00000     0.06748
 Z2 Ag  12  -0.00459    -0.02292    -0.09813     0.00000    -0.00000    -0.29367
 X2 Ag  12  -0.01071    -0.02552    -0.20422     0.00000     0.00000     0.14158
 XY Ag  12  -0.00000     0.00000     0.00000     0.24301    -0.20069     0.00000
 XZ Ag  12   0.00000    -0.00000    -0.00000    -0.19546    -0.25827     0.00000
 YZ Ag  12  -0.00759     0.26535     0.09062    -0.00000    -0.00000    -0.01708
  
  S Ag  13   0.15221     0.03514    -0.08576     0.16041    -0.05053     0.02909
 PX Ag  13  -0.08797    -0.02963     0.05593    -0.06578     0.03275    -0.03032
 PY Ag  13   0.05079     0.00230     0.00795     0.06275    -0.03019    -0.00222
 PZ Ag  13  -0.03430     0.03529     0.06517    -0.08476    -0.03154     0.01846
 Z2 Ag  13  -0.00842    -0.04669    -0.07036     0.08633     0.01592    -0.00966
 X2 Ag  13   0.04751     0.05151    -0.07399     0.01807    -0.03280     0.09803
 XY Ag  13  -0.08229    -0.04329     0.00328    -0.10813     0.13546    -0.03281
 XZ Ag  13   0.03175    -0.10719    -0.08315     0.05156     0.16571    -0.08809
 YZ Ag  13  -0.01834     0.06865     0.02987    -0.04105    -0.08815     0.06468
  
  S Ag  14   0.28973     0.02623     0.09750    -0.14284     0.00035    -0.00041
 PX Ag  14   0.12216     0.02501     0.09320     0.02277    -0.00002    -0.04145
 PY Ag  14  -0.07054    -0.06944     0.09560     0.07878    -0.04145    -0.04798
 PZ Ag  14  -0.04988     0.13917     0.01699     0.05575     0.05851    -0.03372
 Z2 Ag  14  -0.00459    -0.06652     0.02027    -0.07293    -0.25491     0.14684
 X2 Ag  14   0.00536    -0.00280     0.14442     0.18437    -0.14813    -0.11557
 XY Ag  14  -0.00928    -0.14038     0.14470    -0.07636     0.05578    -0.14874
 XZ Ag  14  -0.00656     0.25594     0.00675    -0.05415    -0.07827    -0.10553
 YZ Ag  14   0.00378    -0.07974    -0.18759    -0.08185    -0.10456    -0.19912
  
  S Ag  15   0.28973     0.02623     0.09750     0.14284    -0.00035    -0.00041
 PX Ag  15  -0.12216    -0.02501    -0.09320     0.02277    -0.00002     0.04145
 PY Ag  15  -0.07054    -0.06944     0.09560    -0.07878     0.04145    -0.04798
 PZ Ag  15  -0.04988     0.13917     0.01699    -0.05575    -0.05851    -0.03372
 Z2 Ag  15  -0.00459    -0.06652     0.02027     0.07293     0.25491     0.14684
 X2 Ag  15   0.00536    -0.00280     0.14442    -0.18437     0.14813    -0.11557
 XY Ag  15   0.00928     0.14038    -0.14470    -0.07636     0.05578     0.14874
 XZ Ag  15   0.00656    -0.25594    -0.00675    -0.05415    -0.07827     0.10553
 YZ Ag  15   0.00378    -0.07974    -0.18759     0.08185     0.10456    -0.19912
  
  S Ag  16   0.15221    -0.06086     0.17502    -0.00000    -0.00000    -0.05823
 PX Ag  16  -0.00000     0.00000     0.00000     0.04290    -0.01957     0.00000
 PY Ag  16  -0.10157     0.02601    -0.09909     0.00000     0.00000     0.05035
 PZ Ag  16  -0.03430     0.08612    -0.07268     0.00000    -0.00000    -0.03673
 Z2 Ag  16  -0.00841    -0.09841     0.07012    -0.00000     0.00000     0.01943
 X2 Ag  16  -0.09501    -0.00191    -0.12700     0.00000     0.00000     0.15472
 XY Ag  16   0.00000    -0.00000    -0.00000    -0.07685     0.07868    -0.00000
 XZ Ag  16   0.00000    -0.00000    -0.00000    -0.01941     0.01366     0.00000
 YZ Ag  16   0.03665    -0.16614     0.01897    -0.00000     0.00000     0.21661
  
  S Ag  17   0.15220     0.17406     0.02953    -0.05621     0.05068     0.02949
 PX Ag  17   0.05732     0.11586     0.02486     0.01390    -0.00821    -0.01565
 PY Ag  17   0.03309     0.05209     0.05457    -0.01671    -0.01579     0.01004
 PZ Ag  17  -0.08436    -0.05568     0.00473     0.04105    -0.05140    -0.02976
 Z2 Ag  17   0.05602    -0.00481    -0.07468    -0.11856     0.20996     0.12144
 X2 Ag  17   0.02889     0.09522     0.00390     0.02523     0.01840    -0.02768
 XY Ag  17   0.05003     0.13868     0.07794    -0.00016    -0.00672     0.01835
 XZ Ag  17  -0.05453    -0.05196    -0.01053    -0.05186     0.06578     0.07754
 YZ Ag  17  -0.03150    -0.00722    -0.06798     0.00809     0.07758    -0.02359
  
  S Ag  18   0.15220     0.17406     0.02953     0.05621    -0.05068     0.02949
 PX Ag  18  -0.05732    -0.11586    -0.02486     0.01390    -0.00821     0.01565
 PY Ag  18   0.03309     0.05209     0.05457     0.01671     0.01579     0.01004
 PZ Ag  18  -0.08436    -0.05568     0.00473    -0.04105     0.05140    -0.02976
 Z2 Ag  18   0.05602    -0.00481    -0.07467     0.11856    -0.20996     0.12144
 X2 Ag  18   0.02889     0.09522     0.00390    -0.02523    -0.01840    -0.02768
 XY Ag  18  -0.05003    -0.13868    -0.07794    -0.00016    -0.00672    -0.01835
 XZ Ag  18   0.05453     0.05196     0.01053    -0.05186     0.06578    -0.07754
 YZ Ag  18  -0.03150    -0.00722    -0.06798    -0.00809    -0.07758    -0.02359
  
  S Ag  19   0.15220     0.14049     0.12087    -0.00000    -0.00000    -0.05868
 PX Ag  19  -0.00000     0.00000     0.00000     0.04288     0.01923    -0.00000
 PY Ag  19  -0.06618    -0.12858    -0.04280     0.00000     0.00000    -0.01729
 PZ Ag  19  -0.08436    -0.03118    -0.06196     0.00000     0.00000     0.05962
 Z2 Ag  19   0.05602    -0.07560     0.11794    -0.00000    -0.00000    -0.24317
 X2 Ag  19  -0.05777    -0.17512    -0.04919     0.00000     0.00000     0.00340
 XY Ag  19   0.00000    -0.00000    -0.00000    -0.04385    -0.03857     0.00000
 XZ Ag  19   0.00000    -0.00000    -0.00000    -0.06609    -0.06893     0.00000
 YZ Ag  19   0.06294     0.07299    -0.02342     0.00000     0.00000     0.10989
  
  S Ag  20   0.05358     0.09206     0.03390    -0.00000    -0.00000     0.00012
 PX Ag  20  -0.00000     0.00000     0.00000     0.01760    -0.02965     0.00000
 PY Ag  20  -0.00000    -0.00607     0.01652    -0.00000    -0.00000    -0.02970
 PZ Ag  20  -0.04116    -0.07972    -0.02935     0.00000     0.00000    -0.00012
 Z2 Ag  20   0.05995     0.19515     0.07188    -0.00000    -0.00000     0.00035
 X2 Ag  20  -0.00000     0.00319    -0.00870     0.00000     0.00000     0.04597
 XY Ag  20  -0.00000    -0.00000    -0.00000    -0.00927     0.04597    -0.00000
 XZ Ag  20   0.00000    -0.00000    -0.00000    -0.04833     0.08703    -0.00000
 YZ Ag  20  -0.00000     0.01667    -0.04536     0.00000     0.00000     0.08705




    ROOT NO.    7           8           9          10          11          12

           -15.40362   -15.36145   -15.36061   -15.36019   -15.09522   -15.09439
  
  
  S Ag   1   0.06660    -0.00912     0.02710     0.03825     0.01489    -0.05988
 PX Ag   1   0.05603    -0.00630     0.01765     0.04871     0.01659    -0.03654
 PY Ag   1   0.03218     0.00445     0.03296     0.01432     0.01714    -0.03858
 PZ Ag   1   0.02203    -0.02491     0.01522     0.01016    -0.02248    -0.02722
 Z2 Ag   1  -0.06498    -0.02471    -0.03474    -0.07056    -0.11517     0.02938
 X2 Ag   1   0.07401    -0.02347     0.00152     0.09768    -0.00043    -0.00472
 XY Ag   1   0.12743    -0.00388     0.10627     0.10664     0.06069    -0.15003
 XZ Ag   1   0.08834    -0.05853     0.05877     0.07516    -0.05558    -0.10519
 YZ Ag   1   0.05104    -0.02913     0.04731     0.03540    -0.03081    -0.06412
  
  S Ag   2   0.05243     0.00676    -0.02937     0.07409     0.01808     0.00860
 PX Ag   2  -0.03180     0.02124    -0.07414    -0.05232     0.00488     0.03660
 PY Ag   2   0.00353     0.02522    -0.00940     0.05280    -0.01418     0.00904
 PZ Ag   2   0.00165    -0.02682    -0.01908     0.03718     0.00975     0.00665
 Z2 Ag   2  -0.08755    -0.08499    -0.00106    -0.02910    -0.01418     0.04005
 X2 Ag   2   0.15506    -0.03808    -0.06133     0.02471     0.13190    -0.10129
 XY Ag   2  -0.14049     0.07175    -0.23227    -0.08461    -0.07740     0.10027
 XZ Ag   2  -0.09851     0.04238    -0.16493    -0.05960     0.07281     0.07028
 YZ Ag   2  -0.01071    -0.03747     0.00599     0.03550     0.00907     0.04724
  
  S Ag   3   0.05243     0.00676    -0.02937    -0.07409     0.01808    -0.00860
 PX Ag   3   0.03180    -0.02124     0.07414    -0.05232    -0.00488     0.03660
 PY Ag   3   0.00353     0.02522    -0.00940    -0.05280    -0.01418    -0.00904
 PZ Ag   3   0.00165    -0.02682    -0.01908    -0.03718     0.00975    -0.00665
 Z2 Ag   3  -0.08755    -0.08499    -0.00106     0.02910    -0.01418    -0.04005
 X2 Ag   3   0.15506    -0.03808    -0.06133    -0.02471     0.13190     0.10129
 XY Ag   3   0.14049    -0.07175     0.23227    -0.08461     0.07740     0.10027
 XZ Ag   3   0.09851    -0.04238     0.16493    -0.05960    -0.07281     0.07028
 YZ Ag   3  -0.01071    -0.03747     0.00599    -0.03550     0.00907    -0.04724
  
  S Ag   4   0.06660    -0.00912     0.02710    -0.03825     0.01489     0.05988
 PX Ag   4  -0.05603     0.00630    -0.01765     0.04871    -0.01659    -0.03654
 PY Ag   4   0.03218     0.00445     0.03296    -0.01432     0.01714     0.03858
 PZ Ag   4   0.02203    -0.02491     0.01522    -0.01016    -0.02248     0.02722
 Z2 Ag   4  -0.06498    -0.02471    -0.03474     0.07056    -0.11517    -0.02938
 X2 Ag   4   0.07401    -0.02347     0.00152    -0.09768    -0.00043     0.00472
 XY Ag   4  -0.12743     0.00388    -0.10627     0.10664    -0.06069    -0.15003
 XZ Ag   4  -0.08834     0.05853    -0.05877     0.07516     0.05558    -0.10519
 YZ Ag   4   0.05104    -0.02913     0.04731    -0.03540    -0.03081     0.06412
  
  S Ag   5   0.05169     0.04123     0.06754     0.01516     0.03551    -0.03167
 PX Ag   5  -0.01329     0.05401     0.01547    -0.01739    -0.00408     0.01269
 PY Ag   5  -0.02948     0.01211    -0.04169    -0.08238     0.02168     0.00342
 PZ Ag   5   0.00112    -0.00237     0.04939    -0.00469     0.00502     0.01747
 Z2 Ag   5  -0.08765    -0.07869     0.01600    -0.04017    -0.06631     0.16038
 X2 Ag   5  -0.19996     0.12266    -0.05368    -0.15726    -0.14854     0.17245
 XY Ag   5   0.06247     0.07669     0.03855    -0.14688     0.14130    -0.18955
 XZ Ag   5  -0.05977     0.02789     0.03108    -0.06596     0.03526     0.09790
 YZ Ag   5  -0.08117     0.09511    -0.03495    -0.13734     0.04578     0.06747
  
  S Ag   6  -0.02296     0.10596    -0.03797     0.00000    -0.03464     0.00000
 PX Ag   6   0.00000    -0.00000     0.00000     0.03237     0.00000    -0.01223
 PY Ag   6  -0.00024     0.01098     0.03088    -0.00000    -0.00314    -0.00000
 PZ Ag   6  -0.03226     0.01410    -0.00528     0.00000    -0.00375     0.00000
 Z2 Ag   6   0.02595    -0.21256     0.07585    -0.00000     0.08502    -0.00000
 X2 Ag   6  -0.00212     0.10728     0.30238    -0.00000     0.05441     0.00000
 XY Ag   6   0.00000    -0.00000     0.00000     0.31938    -0.00000     0.21909
 XZ Ag   6   0.00000    -0.00000     0.00000     0.09441     0.00000    -0.11285
 YZ Ag   6  -0.00067     0.03181     0.08913    -0.00000    -0.02844    -0.00000
  
  S Ag   7   0.05169     0.04123     0.06754    -0.01516     0.03551     0.03167
 PX Ag   7   0.01329    -0.05401    -0.01547    -0.01739     0.00408     0.01269
 PY Ag   7  -0.02948     0.01211    -0.04169     0.08238     0.02168    -0.00342
 PZ Ag   7   0.00112    -0.00237     0.04939     0.00469     0.00502    -0.01747
 Z2 Ag   7  -0.08765    -0.07869     0.01600     0.04017    -0.06631    -0.16038
 X2 Ag   7  -0.19996     0.12266    -0.05368     0.15726    -0.14854    -0.17245
 XY Ag   7  -0.06247    -0.07669    -0.03855    -0.14688    -0.14130    -0.18955
 XZ Ag   7   0.05977    -0.02789    -0.03108    -0.06596    -0.03526     0.09790
 YZ Ag   7  -0.08117     0.09511    -0.03495     0.13734     0.04578    -0.06747
  
  S Ag   8   0.05250    -0.00173    -0.05324    -0.05897     0.03202    -0.04044
 PX Ag   8   0.01965    -0.02511    -0.07329    -0.00926    -0.01596     0.01382
 PY Ag   8   0.02643    -0.06376    -0.02320     0.03734     0.00859     0.02346
 PZ Ag   8   0.00156    -0.02400    -0.01122    -0.04195     0.00220     0.01069
 Z2 Ag   8  -0.08789    -0.06199     0.06339    -0.01121    -0.08418     0.11984
 X2 Ag   8   0.04650    -0.16285    -0.10539     0.14495    -0.03203     0.11428
 XY Ag   8   0.20504    -0.10471    -0.03737    -0.00098     0.25970    -0.10632
 XZ Ag   8   0.04149    -0.10406    -0.05285     0.02578    -0.02449    -0.01542
 YZ Ag   8   0.09244    -0.09137    -0.06482     0.09140    -0.01624    -0.03349
  
  S Ag   9   0.05250    -0.00173    -0.05324     0.05897     0.03202     0.04044
 PX Ag   9  -0.01965     0.02511     0.07329    -0.00926     0.01596     0.01382
 PY Ag   9   0.02643    -0.06376    -0.02320    -0.03734     0.00859    -0.02346
 PZ Ag   9   0.00156    -0.02400    -0.01122     0.04195     0.00220    -0.01069
 Z2 Ag   9  -0.08789    -0.06199     0.06339     0.01121    -0.08418    -0.11984
 X2 Ag   9   0.04650    -0.16285    -0.10539    -0.14495    -0.03203    -0.11428
 XY Ag   9  -0.20504     0.10471     0.03737    -0.00098    -0.25970    -0.10632
 XZ Ag   9  -0.04149     0.10406     0.05285     0.02578     0.02449    -0.01542
 YZ Ag   9   0.09244    -0.09137    -0.06482    -0.09140    -0.01624     0.03349
  
  S Ag  10   0.06697    -0.03120    -0.03496     0.00000     0.04115     0.00000
 PX Ag  10   0.00000    -0.00000     0.00000     0.02395    -0.00000     0.03038
 PY Ag  10  -0.06512     0.03176     0.04834    -0.00000    -0.04536    -0.00000
 PZ Ag  10   0.02216    -0.03087    -0.00140    -0.00000    -0.01063     0.00000
 Z2 Ag  10  -0.06575     0.01600     0.07942    -0.00000    -0.12836    -0.00000
 X2 Ag  10  -0.14879     0.09671     0.13668    -0.00000    -0.11069    -0.00000
 XY Ag  10  -0.00000     0.00000    -0.00000    -0.06265     0.00000    -0.14206
 XZ Ag  10   0.00000    -0.00000     0.00000     0.01415    -0.00000     0.00585
 YZ Ag  10  -0.10282     0.11326     0.06028    -0.00000     0.00963    -0.00000
  
  S Ag  11   0.04923    -0.07209     0.03547     0.01539    -0.04016    -0.03164
 PX Ag  11  -0.01547    -0.05340    -0.01463    -0.01718    -0.01335     0.01259
 PY Ag  11  -0.00917    -0.01818     0.02709    -0.03168    -0.01211     0.01722
 PZ Ag  11  -0.02801     0.01986    -0.05365    -0.07582    -0.02998    -0.00273
 Z2 Ag  11   0.23060     0.06482     0.10650     0.20948    -0.04272    -0.22163
 X2 Ag  11  -0.02151    -0.06664    -0.07742    -0.01294    -0.01898    -0.04854
 XY Ag  11  -0.03831    -0.06434     0.00894    -0.11050    -0.08162     0.02785
 XZ Ag  11   0.07541    -0.06969    -0.01181    -0.11548    -0.10459    -0.21110
 YZ Ag  11   0.04387    -0.05866    -0.05838    -0.03549    -0.07494    -0.08853
  
  S Ag  12  -0.02638    -0.06966    -0.08700     0.00000     0.02024     0.00000
 PX Ag  12   0.00000    -0.00000     0.00000     0.03198     0.00000    -0.01214
 PY Ag  12  -0.03133    -0.01562    -0.00400     0.00000     0.00535     0.00000
 PZ Ag  12   0.00995    -0.02084     0.02336    -0.00000     0.00910    -0.00000
 Z2 Ag  12  -0.00180     0.18195    -0.24658     0.00000     0.10766    -0.00000
 X2 Ag  12  -0.02977    -0.22310    -0.04056     0.00000    -0.09193     0.00000
 XY Ag  12   0.00000    -0.00000     0.00000     0.19452     0.00000    -0.03087
 XZ Ag  12   0.00000    -0.00000     0.00000     0.26757    -0.00000     0.24509
 YZ Ag  12  -0.01686    -0.05694    -0.11236     0.00000     0.15860    -0.00000
  
  S Ag  13   0.04923    -0.07209     0.03547    -0.01539    -0.04016     0.03164
 PX Ag  13   0.01547     0.05340     0.01463    -0.01718     0.01335     0.01259
 PY Ag  13  -0.00917    -0.01818     0.02709     0.03168    -0.01211    -0.01722
 PZ Ag  13  -0.02801     0.01986    -0.05365     0.07582    -0.02998     0.00273
 Z2 Ag  13   0.23060     0.06482     0.10650    -0.20948    -0.04272     0.22163
 X2 Ag  13  -0.02151    -0.06664    -0.07742     0.01294    -0.01898     0.04854
 XY Ag  13   0.03831     0.06434    -0.00894    -0.11050     0.08162     0.02785
 XZ Ag  13  -0.07541     0.06969     0.01181    -0.11548     0.10459    -0.21110
 YZ Ag  13   0.04387    -0.05866    -0.05838     0.03549    -0.07494     0.08853
  
  S Ag  14  -0.02752    -0.01667     0.06158    -0.09101     0.00725     0.02953
 PX Ag  14  -0.02721    -0.00512     0.02011     0.00136     0.00256    -0.00180
 PY Ag  14   0.01556     0.01362     0.01824     0.01766    -0.00472    -0.00601
 PZ Ag  14   0.01012    -0.02841     0.00220     0.01269     0.01110    -0.00441
 Z2 Ag  14  -0.00392     0.26813    -0.00439    -0.14726     0.11049    -0.00577
 X2 Ag  14   0.01457     0.13191     0.07738     0.13349     0.06197    -0.06419
 XY Ag  14  -0.02720    -0.11564     0.18220    -0.03658    -0.12195     0.08060
 XZ Ag  14  -0.01656     0.04427     0.16492    -0.02623     0.16553     0.05763
 YZ Ag  14   0.00779     0.06429     0.15675     0.16986    -0.03402     0.10935
  
  S Ag  15  -0.02752    -0.01667     0.06158     0.09101     0.00725    -0.02953
 PX Ag  15   0.02721     0.00512    -0.02011     0.00136    -0.00256    -0.00180
 PY Ag  15   0.01556     0.01362     0.01824    -0.01766    -0.00472     0.00601
 PZ Ag  15   0.01012    -0.02841     0.00220    -0.01269     0.01110     0.00441
 Z2 Ag  15  -0.00392     0.26813    -0.00439     0.14726     0.11049     0.00577
 X2 Ag  15   0.01457     0.13191     0.07738    -0.13349     0.06197     0.06419
 XY Ag  15   0.02720     0.11564    -0.18220    -0.03658     0.12195     0.08060
 XZ Ag  15   0.01656    -0.04427    -0.16492    -0.02623    -0.16553     0.05763
 YZ Ag  15   0.00779     0.06429     0.15675    -0.16986    -0.03402    -0.10935
  
  S Ag  16   0.04939    -0.08102     0.01033    -0.00000    -0.02634     0.00000
 PX Ag  16   0.00000    -0.00000     0.00000     0.03777     0.00000    -0.01720
 PY Ag  16   0.01829     0.03753    -0.05070     0.00000     0.02626     0.00000
 PZ Ag  16  -0.02891     0.06386     0.06974    -0.00000    -0.02899     0.00000
 Z2 Ag  16   0.23271    -0.05653    -0.23412     0.00000     0.05486     0.00000
 X2 Ag  16   0.04498     0.02988    -0.13476     0.00000     0.08078    -0.00000
 XY Ag  16  -0.00000     0.00000    -0.00000    -0.08807    -0.00000     0.11185
 XZ Ag  16  -0.00000     0.00000    -0.00000    -0.05454     0.00000    -0.05905
 YZ Ag  16  -0.08561     0.02137    -0.15174     0.00000     0.02944    -0.00000
  
  S Ag  17   0.05311     0.02726    -0.04527    -0.05863    -0.02733    -0.04042
 PX Ag  17   0.02156     0.05866    -0.04970    -0.00932     0.00673     0.01377
 PY Ag  17   0.01215     0.04657     0.00698    -0.02723    -0.00050     0.01797
 PZ Ag  17   0.02657     0.05281     0.01127     0.04892    -0.02576     0.01877
 Z2 Ag  17  -0.06612    -0.21388    -0.01979    -0.15657    -0.02987    -0.11050
 X2 Ag  17   0.06582     0.05466    -0.06803     0.06050    -0.05597    -0.01863
 XY Ag  17   0.11295     0.14179     0.01448     0.02403    -0.08954    -0.04930
 XZ Ag  17   0.18134     0.05779     0.01541    -0.00895    -0.28809    -0.09461
 YZ Ag  17   0.10541     0.01139    -0.05298     0.03269    -0.13524    -0.12699
  
  S Ag  18   0.05311     0.02726    -0.04527     0.05863    -0.02733     0.04042
 PX Ag  18  -0.02156    -0.05866     0.04970    -0.00932    -0.00673     0.01377
 PY Ag  18   0.01215     0.04657     0.00698     0.02723    -0.00050    -0.01797
 PZ Ag  18   0.02657     0.05281     0.01127    -0.04892    -0.02576    -0.01877
 Z2 Ag  18  -0.06612    -0.21388    -0.01979     0.15657    -0.02987     0.11050
 X2 Ag  18   0.06582     0.05466    -0.06803    -0.06050    -0.05597     0.01863
 XY Ag  18  -0.11295    -0.14179    -0.01448     0.02403     0.08954    -0.04930
 XZ Ag  18  -0.18134    -0.05779    -0.01541    -0.00895     0.28809    -0.09461
 YZ Ag  18   0.10541     0.01139    -0.05298    -0.03269    -0.13524     0.12699
  
  S Ag  19   0.05240     0.06135     0.05028    -0.00000    -0.00986     0.00000
 PX Ag  19   0.00000    -0.00000     0.00000     0.03780     0.00000    -0.01752
 PY Ag  19  -0.02452    -0.08670     0.00414    -0.00000     0.00363     0.00000
 PZ Ag  19   0.02716     0.02439    -0.06837     0.00000    -0.03384    -0.00000
 Z2 Ag  19  -0.06781    -0.12309     0.23458    -0.00000     0.01735     0.00000
 X2 Ag  19  -0.13127    -0.12048     0.10472    -0.00000     0.08279    -0.00000
 XY Ag  19  -0.00000     0.00000    -0.00000    -0.08079     0.00000    -0.01712
 XZ Ag  19  -0.00000     0.00000    -0.00000    -0.06549    -0.00000     0.12615
 YZ Ag  19  -0.20947    -0.05065     0.02755    -0.00000     0.25351    -0.00000
  
  S Ag  20   0.06842     0.04221    -0.01461     0.00000    -0.07087     0.00000
 PX Ag  20   0.00000    -0.00000     0.00000     0.02371    -0.00000     0.03038
 PY Ag  20  -0.00015     0.00795     0.02227    -0.00000     0.00754     0.00000
 PZ Ag  20  -0.07078    -0.05568     0.01940    -0.00000     0.06777    -0.00000
 Z2 Ag  20   0.20007     0.19944    -0.06986     0.00000    -0.21285     0.00000
 X2 Ag  20   0.00008    -0.00241    -0.00674     0.00000    -0.01053    -0.00000
 XY Ag  20  -0.00000     0.00000    -0.00000    -0.00733     0.00000    -0.04192
 XZ Ag  20  -0.00000     0.00000    -0.00000    -0.06298     0.00000    -0.13558
 YZ Ag  20   0.00048    -0.02108    -0.05909     0.00000    -0.03386    -0.00000




    ROOT NO.   13          14          15          16          17          18

           -15.09396   -15.00448   -14.77825   -14.77808   -14.73843   -14.73828
  
  
  S Ag   1   0.03965    -0.03660    -0.00003    -0.00017     0.02135     0.03213
 PX Ag   1   0.04423    -0.01417    -0.00013    -0.01916     0.00377     0.03540
 PY Ag   1  -0.00374    -0.00817    -0.01908     0.02173     0.03098     0.00361
 PZ Ag   1   0.01039    -0.00593     0.02712     0.01570     0.00996     0.00280
 Z2 Ag   1  -0.04762     0.00612     0.12535     0.07250    -0.01877    -0.06181
 X2 Ag   1   0.14930    -0.00732     0.07163    -0.19996    -0.05620     0.10119
 XY Ag   1   0.02105    -0.01260    -0.11729     0.07089     0.10174     0.05927
 XZ Ag   1   0.05178    -0.00925     0.16523     0.05135     0.03655     0.04327
 YZ Ag   1   0.02437    -0.00528     0.05143     0.10633     0.04496     0.01233
  
  S Ag   2   0.04761    -0.05279     0.00003    -0.05360     0.02886    -0.00150
 PX Ag   2   0.01175    -0.01798     0.00015     0.00739     0.01318    -0.04164
 PY Ag   2  -0.00947    -0.01261    -0.03061     0.00134    -0.00351    -0.01244
 PZ Ag   2  -0.01426    -0.00861     0.04342     0.00061     0.01484    -0.00851
 Z2 Ag   2  -0.17067     0.01270     0.14417     0.07563     0.09477    -0.05927
 X2 Ag   2   0.27248    -0.06770     0.08232    -0.17662     0.03459     0.14408
 XY Ag   2  -0.02653    -0.06188     0.06434     0.05686    -0.11720    -0.05050
 XZ Ag   2  -0.06665    -0.04211    -0.09046     0.03733     0.01604    -0.03635
 YZ Ag   2  -0.03026     0.06859     0.05959     0.06176    -0.05438    -0.05729
  
  S Ag   3   0.04761    -0.05279    -0.00003    -0.05360     0.02886     0.00150
 PX Ag   3  -0.01175     0.01798     0.00015    -0.00739    -0.01318    -0.04164
 PY Ag   3  -0.00947    -0.01261     0.03061     0.00134    -0.00351     0.01244
 PZ Ag   3  -0.01426    -0.00861    -0.04342     0.00061     0.01484     0.00851
 Z2 Ag   3  -0.17067     0.01270    -0.14417     0.07563     0.09477     0.05927
 X2 Ag   3   0.27248    -0.06770    -0.08232    -0.17662     0.03459    -0.14408
 XY Ag   3   0.02653     0.06188     0.06434    -0.05686     0.11720    -0.05050
 XZ Ag   3   0.06665     0.04211    -0.09046    -0.03733    -0.01604    -0.03635
 YZ Ag   3  -0.03026     0.06859    -0.05959     0.06176    -0.05438     0.05729
  
  S Ag   4   0.03965    -0.03660     0.00003    -0.00017     0.02135    -0.03213
 PX Ag   4  -0.04423     0.01417    -0.00013     0.01916    -0.00377     0.03540
 PY Ag   4  -0.00374    -0.00817     0.01908     0.02173     0.03098    -0.00361
 PZ Ag   4   0.01039    -0.00593    -0.02712     0.01570     0.00996    -0.00280
 Z2 Ag   4  -0.04762     0.00612    -0.12535     0.07250    -0.01877     0.06181
 X2 Ag   4   0.14930    -0.00732    -0.07163    -0.19996    -0.05620    -0.10119
 XY Ag   4  -0.02105     0.01260    -0.11729    -0.07089    -0.10174     0.05927
 XZ Ag   4  -0.05178     0.00925     0.16523    -0.05135    -0.03655     0.04327
 YZ Ag   4   0.02437    -0.00528    -0.05143     0.10633     0.04496    -0.01233
  
  S Ag   5  -0.01990    -0.05268    -0.04613     0.02655    -0.00752     0.02163
 PX Ag   5  -0.02454    -0.01987    -0.00902    -0.02547    -0.01786    -0.01876
 PY Ag   5  -0.02488    -0.00923     0.01264     0.01087    -0.03371    -0.00208
 PZ Ag   5   0.00370    -0.00855     0.02250     0.03762    -0.02541     0.01633
 Z2 Ag   5   0.02985     0.01285     0.13811     0.08859    -0.15311     0.09170
 X2 Ag   5  -0.09964    -0.01980     0.12533    -0.05622     0.00786    -0.19120
 XY Ag   5  -0.03130    -0.08948    -0.05675     0.15231     0.07931     0.03719
 XZ Ag   5  -0.02360     0.03785     0.06567    -0.03014    -0.11805    -0.02109
 YZ Ag   5   0.00726    -0.07056    -0.05130    -0.09452    -0.06970     0.06047
  
  S Ag   6  -0.00895     0.00556     0.00000    -0.00014     0.02080     0.00000
 PX Ag   6  -0.00000    -0.00000     0.03071    -0.00000    -0.00000     0.07129
 PY Ag   6   0.01221    -0.00014     0.00000     0.03048     0.06841     0.00000
 PZ Ag   6  -0.00092     0.09192    -0.00000     0.00020    -0.02014    -0.00000
 Z2 Ag   6   0.02248     0.43283    -0.00000     0.00100    -0.09669    -0.00000
 X2 Ag   6  -0.21075     0.00048    -0.00000    -0.14187    -0.03631    -0.00000
 XY Ag   6   0.00000    -0.00000    -0.13946     0.00000     0.00000    -0.04197
 XZ Ag   6  -0.00000    -0.00000    -0.14405     0.00000    -0.00000     0.15737
 YZ Ag   6   0.10979    -0.00044    -0.00000    -0.14436     0.14947     0.00000
  
  S Ag   7  -0.01990    -0.05268     0.04613     0.02655    -0.00752    -0.02163
 PX Ag   7   0.02454     0.01987    -0.00902     0.02547     0.01786    -0.01876
 PY Ag   7  -0.02488    -0.00923    -0.01264     0.01087    -0.03371     0.00208
 PZ Ag   7   0.00370    -0.00855    -0.02250     0.03762    -0.02541    -0.01633
 Z2 Ag   7   0.02985     0.01285    -0.13811     0.08859    -0.15311    -0.09170
 X2 Ag   7  -0.09964    -0.01980    -0.12533    -0.05622     0.00786     0.19120
 XY Ag   7   0.03130     0.08948    -0.05675    -0.15231    -0.07931     0.03719
 XZ Ag   7   0.02360    -0.03785     0.06567     0.03014     0.11805    -0.02109
 YZ Ag   7   0.00726    -0.07056     0.05130    -0.09452    -0.06970    -0.06047
  
  S Ag   8  -0.00561    -0.05285    -0.04644     0.02689    -0.00645     0.02188
 PX Ag   8  -0.00860    -0.00216     0.01107     0.02453     0.00280    -0.01787
 PY Ag   8  -0.02715     0.02186    -0.01379    -0.00943    -0.03813    -0.02542
 PZ Ag   8   0.01492    -0.00855    -0.02122    -0.03805    -0.01194     0.02364
 Z2 Ag   8   0.09799     0.01320    -0.00693    -0.16343    -0.05541     0.14680
 X2 Ag   8   0.01585     0.08698     0.08370     0.06484    -0.02536     0.09311
 XY Ag   8  -0.16102    -0.02744    -0.17624     0.05738    -0.21563     0.03334
 XZ Ag   8  -0.00908     0.08030    -0.01988    -0.10181     0.05278    -0.03369
 YZ Ag   8  -0.12532     0.00275    -0.08000    -0.01171     0.03681    -0.07167
  
  S Ag   9  -0.00561    -0.05285     0.04644     0.02689    -0.00645    -0.02188
 PX Ag   9   0.00860     0.00216     0.01107    -0.02453    -0.00280    -0.01787
 PY Ag   9  -0.02715     0.02186     0.01379    -0.00943    -0.03813     0.02542
 PZ Ag   9   0.01492    -0.00855     0.02122    -0.03805    -0.01194    -0.02364
 Z2 Ag   9   0.09799     0.01320     0.00693    -0.16343    -0.05541    -0.14680
 X2 Ag   9   0.01585     0.08698    -0.08370     0.06484    -0.02536    -0.09311
 XY Ag   9   0.16102     0.02744    -0.17624    -0.05738     0.21563     0.03334
 XZ Ag   9   0.00908    -0.08030    -0.01988     0.10181    -0.05278    -0.03369
 YZ Ag   9  -0.12532     0.00275     0.08000    -0.01171     0.03681     0.07167
  
  S Ag  10  -0.06090    -0.03658     0.00000     0.00022    -0.03195    -0.00000
 PX Ag  10   0.00000    -0.00000     0.03312    -0.00000    -0.00000     0.02995
 PY Ag  10   0.04923     0.01639    -0.00000    -0.01142     0.03526     0.00000
 PZ Ag  10  -0.03522    -0.00581    -0.00000    -0.03164     0.00565     0.00000
 Z2 Ag  10   0.00226     0.00648    -0.00000    -0.14544     0.08371     0.00000
 X2 Ag  10   0.12987     0.01488    -0.00000    -0.07709     0.11000     0.00000
 XY Ag  10  -0.00000     0.00000    -0.24203     0.00000     0.00000    -0.11857
 XZ Ag  10   0.00000    -0.00000     0.07739    -0.00000    -0.00000     0.02499
 YZ Ag  10   0.14950     0.01022     0.00000     0.19567     0.01769     0.00000
  
  S Ag  11   0.00840    -0.05251     0.04603     0.02665     0.00683     0.02211
 PX Ag  11  -0.02132    -0.01952     0.00932    -0.02562     0.00417    -0.01868
 PY Ag  11   0.00441    -0.01120    -0.02567     0.03905    -0.03799     0.01435
 PZ Ag  11  -0.00624    -0.00585    -0.00427    -0.00247    -0.01107    -0.00733
 Z2 Ag  11   0.12141     0.04887     0.11460     0.06569     0.06627     0.08567
 X2 Ag  11  -0.09170     0.00249     0.02389    -0.07067     0.21255    -0.19549
 XY Ag  11   0.02883     0.00466    -0.04297     0.02422    -0.17640    -0.00812
 XZ Ag  11   0.06388    -0.09715     0.07579     0.15427     0.08574     0.04400
 YZ Ag  11   0.09374    -0.05623     0.15448    -0.10309    -0.01325     0.05907
  
  S Ag  12  -0.03010     0.00656    -0.00000    -0.00080     0.06017     0.00000
 PX Ag  12  -0.00000    -0.00000    -0.03185     0.00000    -0.00000     0.07105
 PY Ag  12  -0.00036     0.08621     0.00000     0.01116    -0.04145    -0.00000
 PZ Ag  12   0.00771    -0.03058     0.00000     0.02879     0.05905     0.00000
 Z2 Ag  12   0.03423    -0.14204     0.00000     0.18428     0.06585     0.00000
 X2 Ag  12  -0.14606    -0.33041     0.00000    -0.03625     0.17421     0.00000
 XY Ag  12  -0.00000    -0.00000     0.17976    -0.00000    -0.00000     0.13594
 XZ Ag  12   0.00000    -0.00000     0.08346    -0.00000     0.00000    -0.09166
 YZ Ag  12   0.04748    -0.23464    -0.00000    -0.07011     0.23392     0.00000
  
  S Ag  13   0.00840    -0.05251    -0.04603     0.02665     0.00683    -0.02211
 PX Ag  13   0.02132     0.01952     0.00932     0.02562    -0.00417    -0.01868
 PY Ag  13   0.00441    -0.01120     0.02567     0.03905    -0.03799    -0.01435
 PZ Ag  13  -0.00624    -0.00585     0.00427    -0.00247    -0.01107     0.00733
 Z2 Ag  13   0.12141     0.04887    -0.11460     0.06569     0.06627    -0.08567
 X2 Ag  13  -0.09170     0.00249    -0.02389    -0.07067     0.21255     0.19549
 XY Ag  13  -0.02883    -0.00466    -0.04297    -0.02422     0.17640    -0.00812
 XZ Ag  13  -0.06388     0.09715     0.07579    -0.15427    -0.08574     0.04400
 YZ Ag  13   0.09374    -0.05623    -0.15448    -0.10309    -0.01325    -0.05907
  
  S Ag  14   0.01969     0.00665    -0.00052     0.00054    -0.04027     0.06041
 PX Ag  14   0.00708     0.07458     0.00017    -0.01882     0.06401    -0.02479
 PY Ag  14   0.00782    -0.04307    -0.01852    -0.02134     0.03095     0.05500
 PZ Ag  14   0.00024    -0.03048     0.02518    -0.01459    -0.00654     0.03947
 Z2 Ag  14   0.02535    -0.14218     0.16088    -0.09191    -0.07200     0.07948
 X2 Ag  14   0.00999     0.16503     0.09394     0.12539     0.17638    -0.03958
 XY Ag  14   0.03486    -0.28592     0.01769     0.09335    -0.07597     0.20762
 XZ Ag  14  -0.07016    -0.20218    -0.02945     0.06678    -0.11554     0.14766
 YZ Ag  14  -0.19776     0.11668     0.06662     0.04592    -0.01804    -0.13159
  
  S Ag  15   0.01969     0.00665     0.00052     0.00054    -0.04027    -0.06041
 PX Ag  15  -0.00708    -0.07458     0.00017     0.01882    -0.06401    -0.02479
 PY Ag  15   0.00782    -0.04307     0.01852    -0.02134     0.03095    -0.05500
 PZ Ag  15   0.00024    -0.03048    -0.02518    -0.01459    -0.00654    -0.03947
 Z2 Ag  15   0.02535    -0.14218    -0.16088    -0.09191    -0.07200    -0.07948
 X2 Ag  15   0.00999     0.16503    -0.09394     0.12539     0.17638     0.03958
 XY Ag  15  -0.03486     0.28592     0.01769    -0.09335     0.07597     0.20762
 XZ Ag  15   0.07016     0.20218    -0.02945    -0.06678     0.11554     0.14766
 YZ Ag  15  -0.19776     0.11668    -0.06662     0.04592    -0.01804     0.13159
  
  S Ag  16  -0.04462    -0.05239    -0.00000    -0.05335    -0.02961    -0.00000
 PX Ag  16  -0.00000     0.00000     0.05400    -0.00000     0.00000    -0.04262
 PY Ag  16  -0.01654     0.02253     0.00000    -0.00549     0.00027    -0.00000
 PZ Ag  16  -0.01058    -0.00582     0.00000     0.00505     0.00080     0.00000
 Z2 Ag  16  -0.25109     0.04885    -0.00000    -0.13185    -0.07743    -0.00000
 X2 Ag  16   0.02059    -0.00531    -0.00000    -0.02844    -0.12859    -0.00000
 XY Ag  16   0.00000    -0.00000    -0.08425     0.00000    -0.00000     0.32976
 XZ Ag  16  -0.00000     0.00000    -0.19409     0.00000     0.00000    -0.06776
 YZ Ag  16   0.27784     0.11135     0.00000     0.16497     0.04437     0.00000
  
  S Ag  17   0.01693    -0.05250     0.04639     0.02665     0.00808     0.02291
 PX Ag  17  -0.01700    -0.00191    -0.01089     0.02412     0.01260    -0.01790
 PY Ag  17   0.00725    -0.00108     0.02427    -0.03878    -0.03518     0.01440
 PZ Ag  17  -0.01791     0.02324     0.00631     0.00371    -0.02479    -0.03176
 Z2 Ag  17   0.05807    -0.07289     0.02075     0.01227    -0.02957    -0.08109
 X2 Ag  17   0.01405     0.03745    -0.07613     0.16482     0.03093    -0.04102
 XY Ag  17  -0.00396     0.06517     0.07803    -0.07554    -0.04059    -0.01844
 XZ Ag  17   0.05607    -0.05401     0.15975     0.08855    -0.20131     0.04516
 YZ Ag  17  -0.08933    -0.03150     0.08836     0.05782     0.20279    -0.16373
  
  S Ag  18   0.01693    -0.05250    -0.04639     0.02665     0.00808    -0.02291
 PX Ag  18   0.01700     0.00191    -0.01089    -0.02412    -0.01260    -0.01790
 PY Ag  18   0.00725    -0.00108    -0.02427    -0.03878    -0.03518    -0.01440
 PZ Ag  18  -0.01791     0.02324    -0.00631     0.00371    -0.02479     0.03176
 Z2 Ag  18   0.05807    -0.07289    -0.02075     0.01227    -0.02957     0.08109
 X2 Ag  18   0.01405     0.03745     0.07613     0.16482     0.03093     0.04102
 XY Ag  18   0.00396    -0.06517     0.07803     0.07554     0.04059    -0.01844
 XZ Ag  18  -0.05607     0.05401     0.15975    -0.08855     0.20131     0.04516
 YZ Ag  18  -0.08933    -0.03150    -0.08836     0.05782     0.20279     0.16373
  
  S Ag  19  -0.05069    -0.05239    -0.00000    -0.05337    -0.03094    -0.00000
 PX Ag  19  -0.00000     0.00000    -0.05318     0.00000     0.00000    -0.04390
 PY Ag  19  -0.02405     0.00218    -0.00000     0.00302    -0.00653    -0.00000
 PZ Ag  19   0.01352     0.02314    -0.00000    -0.00732     0.02769     0.00000
 Z2 Ag  19  -0.12678    -0.07254    -0.00000    -0.02469     0.10606     0.00000
 X2 Ag  19   0.08372    -0.07526     0.00000     0.03436    -0.04097    -0.00000
 XY Ag  19  -0.00000     0.00000     0.20972    -0.00000    -0.00000     0.05213
 XZ Ag  19   0.00000    -0.00000     0.00854     0.00000    -0.00000     0.33559
 YZ Ag  19   0.23891     0.06214     0.00000     0.21069     0.00292    -0.00000
  
  S Ag  20  -0.01845    -0.03662    -0.00000     0.00001    -0.01099    -0.00000
 PX Ag  20   0.00000    -0.00000    -0.03380     0.00000    -0.00000     0.02927
 PY Ag  20  -0.02931     0.00002    -0.00000    -0.03383     0.02765     0.00000
 PZ Ag  20   0.01766     0.01753     0.00000    -0.00001     0.01079     0.00000
 Z2 Ag  20  -0.05550    -0.01990    -0.00000     0.00002    -0.04214    -0.00000
 X2 Ag  20   0.04055    -0.00010     0.00000     0.00919    -0.01630    -0.00000
 XY Ag  20  -0.00000     0.00000     0.00884     0.00000     0.00000    -0.01606
 XZ Ag  20  -0.00000     0.00000     0.25736    -0.00000     0.00000    -0.11514
 YZ Ag  20   0.13067    -0.00020     0.00000     0.25731    -0.10805    -0.00000




    ROOT NO.   19          20          21          22          23          24

           -14.73701   -14.69483   -14.69404   -14.69392   -14.43011   -14.42969
  
  
  S Ag   1  -0.00738     0.00028    -0.00041     0.00009    -0.00247    -0.00084
 PX Ag   1  -0.00139     0.01156    -0.00019     0.01159    -0.01557     0.00689
 PY Ag   1   0.00731    -0.02230     0.00914    -0.00403     0.00619    -0.02192
 PZ Ag   1  -0.02873     0.00412    -0.01356    -0.02238     0.00434    -0.00172
 Z2 Ag   1  -0.06340     0.00207    -0.00885    -0.01437     0.07061     0.02209
 X2 Ag   1  -0.02220     0.07045    -0.00536     0.06174    -0.16610     0.17159
 XY Ag   1   0.01734    -0.05363     0.04736     0.04233    -0.02465    -0.15469
 XZ Ag   1  -0.08596     0.06503    -0.06908    -0.07146    -0.01651     0.02444
 YZ Ag   1  -0.04397    -0.07374    -0.00434    -0.08262     0.06152    -0.10778
  
  S Ag   2  -0.01001     0.03511    -0.00047     0.03567     0.00462     0.03351
 PX Ag   2  -0.00428    -0.01493    -0.00001    -0.01499     0.03100    -0.01636
 PY Ag   2  -0.02513    -0.00738     0.00050     0.03884    -0.00367    -0.01149
 PZ Ag   2   0.03223     0.04396    -0.00076    -0.02077    -0.00249     0.00796
 Z2 Ag   2   0.17002     0.16351    -0.04845    -0.13670     0.06516     0.07629
 X2 Ag   2   0.10408     0.07017    -0.02891    -0.10418    -0.10556     0.11372
 XY Ag   2  -0.10467     0.02968    -0.13850    -0.01777     0.09346    -0.01864
 XZ Ag   2   0.20018    -0.03021     0.19761     0.03761     0.06513    -0.10356
 YZ Ag   2   0.10226     0.05809    -0.01861    -0.06564    -0.01074    -0.04584
  
  S Ag   3  -0.01001    -0.03511    -0.00047    -0.03567    -0.00462     0.03351
 PX Ag   3   0.00428    -0.01493     0.00001    -0.01499     0.03100     0.01636
 PY Ag   3  -0.02513     0.00738     0.00050    -0.03884     0.00367    -0.01149
 PZ Ag   3   0.03223    -0.04396    -0.00076     0.02077     0.00249     0.00796
 Z2 Ag   3   0.17002    -0.16351    -0.04845     0.13670    -0.06516     0.07629
 X2 Ag   3   0.10408    -0.07017    -0.02891     0.10418     0.10556     0.11372
 XY Ag   3   0.10467     0.02968     0.13850    -0.01777     0.09346     0.01864
 XZ Ag   3  -0.20018    -0.03021    -0.19761     0.03761     0.06513     0.10356
 YZ Ag   3   0.10226    -0.05809    -0.01861     0.06564     0.01074    -0.04584
  
  S Ag   4  -0.00738    -0.00028    -0.00041    -0.00009     0.00247    -0.00084
 PX Ag   4   0.00139     0.01156     0.00019     0.01159    -0.01557    -0.00689
 PY Ag   4   0.00731     0.02230     0.00914     0.00403    -0.00619    -0.02192
 PZ Ag   4  -0.02873    -0.00412    -0.01356     0.02238    -0.00434    -0.00172
 Z2 Ag   4  -0.06340    -0.00207    -0.00885     0.01437    -0.07061     0.02209
 X2 Ag   4  -0.02220    -0.07045    -0.00536    -0.06174     0.16610     0.17159
 XY Ag   4  -0.01734    -0.05363    -0.04736     0.04233    -0.02465     0.15469
 XZ Ag   4   0.08596     0.06503     0.06908    -0.07146    -0.01651    -0.02444
 YZ Ag   4  -0.04397     0.07374    -0.00434     0.08262    -0.06152    -0.10778
  
  S Ag   5  -0.02132    -0.04271     0.02486     0.00707     0.02909    -0.00845
 PX Ag   5  -0.03058     0.00570     0.02377     0.01598    -0.01016     0.02055
 PY Ag   5  -0.00435     0.01699    -0.02557    -0.01255     0.00871     0.02570
 PZ Ag   5   0.02094    -0.03590    -0.02307    -0.02194     0.00906    -0.01224
 Z2 Ag   5   0.09900    -0.11106    -0.11219    -0.14825     0.12495    -0.02618
 X2 Ag   5  -0.10888     0.01303     0.08398    -0.07177     0.01547     0.13081
 XY Ag   5   0.06756    -0.03029    -0.04775    -0.14518     0.06678    -0.10212
 XZ Ag   5   0.16976    -0.03604    -0.07337     0.04201    -0.06095     0.05410
 YZ Ag   5   0.09576     0.00735    -0.02444     0.19733    -0.05076     0.12507
  
  S Ag   6  -0.07117    -0.00000    -0.00128    -0.00000    -0.00000     0.00185
 PX Ag   6  -0.00000     0.00504     0.00000    -0.02407    -0.00146    -0.00000
 PY Ag   6   0.02031    -0.00000    -0.02513    -0.00000     0.00000    -0.00103
 PZ Ag   6   0.06939     0.00000     0.00118     0.00000     0.00000    -0.00351
 Z2 Ag   6   0.33364     0.00000     0.00582     0.00000     0.00000    -0.01966
 X2 Ag   6  -0.01758     0.00000     0.37687     0.00000    -0.00000     0.21066
 XY Ag   6   0.00000    -0.06796    -0.00000     0.37095     0.21349     0.00000
 XZ Ag   6  -0.00000     0.00176     0.00000    -0.00746     0.13165     0.00000
 YZ Ag   6   0.04437    -0.00000    -0.00960    -0.00000    -0.00000     0.12996
  
  S Ag   7  -0.02132     0.04271     0.02486    -0.00707    -0.02909    -0.00845
 PX Ag   7   0.03058     0.00570    -0.02377     0.01598    -0.01016    -0.02055
 PY Ag   7  -0.00435    -0.01699    -0.02557     0.01255    -0.00871     0.02570
 PZ Ag   7   0.02094     0.03590    -0.02307     0.02194    -0.00906    -0.01224
 Z2 Ag   7   0.09900     0.11106    -0.11219     0.14825    -0.12495    -0.02618
 X2 Ag   7  -0.10888    -0.01303     0.08398     0.07177    -0.01547     0.13081
 XY Ag   7  -0.06756    -0.03029     0.04775    -0.14518     0.06678     0.10212
 XZ Ag   7  -0.16976    -0.03604     0.07337     0.04201    -0.06095    -0.05410
 YZ Ag   7   0.09576    -0.00735    -0.02444    -0.19733     0.05076     0.12507
  
  S Ag   8  -0.01989     0.04289    -0.02527    -0.00671     0.02484    -0.01627
 PX Ag   8  -0.01526     0.01156    -0.03543    -0.01781     0.00609     0.01997
 PY Ag   8   0.00790     0.01341     0.00880     0.00679     0.02964     0.01204
 PZ Ag   8   0.02427     0.03675     0.02533     0.02006     0.01196    -0.00772
 Z2 Ag   8   0.12302     0.13004     0.16893     0.06178     0.06143    -0.13789
 X2 Ag   8   0.01194    -0.05933    -0.13406     0.06870    -0.03773     0.07155
 XY Ag   8   0.05309     0.01332     0.05812     0.08652     0.15868     0.07133
 XZ Ag   8   0.01416     0.06020     0.13198    -0.04826     0.05643    -0.00979
 YZ Ag   8  -0.22260     0.02024     0.07542    -0.13600     0.13052    -0.01972
  
  S Ag   9  -0.01989    -0.04289    -0.02527     0.00671    -0.02484    -0.01627
 PX Ag   9   0.01526     0.01156     0.03543    -0.01781     0.00609    -0.01997
 PY Ag   9   0.00790    -0.01341     0.00880    -0.00679    -0.02964     0.01204
 PZ Ag   9   0.02427    -0.03675     0.02533    -0.02006    -0.01196    -0.00772
 Z2 Ag   9   0.12302    -0.13004     0.16893    -0.06178    -0.06143    -0.13789
 X2 Ag   9   0.01194     0.05933    -0.13406    -0.06870     0.03773     0.07155
 XY Ag   9  -0.05309     0.01332    -0.05812     0.08652     0.15868    -0.07133
 XZ Ag   9  -0.01416     0.06020    -0.13198    -0.04826     0.05643     0.00979
 YZ Ag   9  -0.22260    -0.02024     0.07542     0.13600    -0.13052    -0.01972
  
  S Ag  10  -0.02280    -0.00000    -0.00002    -0.00000    -0.00000     0.00316
 PX Ag  10  -0.00000    -0.02696    -0.00000     0.00454    -0.02639    -0.00000
 PY Ag  10   0.01299     0.00000     0.00908     0.00000     0.00000    -0.01264
 PZ Ag  10  -0.03058     0.00000     0.02561     0.00000     0.00000    -0.00897
 Z2 Ag  10  -0.03350     0.00000     0.01422     0.00000     0.00000    -0.09846
 X2 Ag  10   0.04344     0.00000     0.07813     0.00000     0.00000    -0.12995
 XY Ag  10   0.00000     0.09294    -0.00000    -0.01561     0.26441     0.00000
 XZ Ag  10  -0.00000    -0.10564    -0.00000     0.01700    -0.12506    -0.00000
 YZ Ag  10   0.11939    -0.00000    -0.11827    -0.00000    -0.00000     0.05946
  
  S Ag  11   0.02197     0.00805    -0.02462    -0.04277     0.02908     0.01254
 PX Ag  11   0.03508     0.01578    -0.02354     0.00610    -0.01001     0.01382
 PY Ag  11   0.00747    -0.02427     0.03146    -0.02873     0.01099    -0.02139
 PZ Ag  11   0.02296    -0.00525     0.01680     0.02803     0.00529     0.00878
 Z2 Ag  11  -0.05007    -0.00283     0.01151     0.02205    -0.02469    -0.04430
 X2 Ag  11   0.04233     0.00979    -0.14633     0.09160    -0.07090     0.05370
 XY Ag  11  -0.09175    -0.00900     0.08879    -0.04417    -0.03658    -0.05872
 XZ Ag  11  -0.07497    -0.15036     0.01823    -0.01956     0.08388    -0.11805
 YZ Ag  11  -0.06042     0.25566    -0.01749     0.06710    -0.11339     0.20814
  
  S Ag  12   0.04300     0.00000     0.00035     0.00000    -0.00000     0.00623
 PX Ag  12  -0.00000    -0.02391    -0.00000     0.00430    -0.00176    -0.00000
 PY Ag  12  -0.05969     0.00000     0.00771     0.00000     0.00000    -0.02236
 PZ Ag  12  -0.04026     0.00000     0.02250     0.00000    -0.00000     0.00655
 Z2 Ag  12   0.11131     0.00000     0.28813     0.00000     0.00000    -0.07538
 X2 Ag  12   0.21984    -0.00000    -0.21018    -0.00000    -0.00000     0.12975
 XY Ag  12  -0.00000     0.11872     0.00000    -0.01945     0.19732     0.00000
 XZ Ag  12   0.00000     0.35263     0.00000    -0.05830     0.15490     0.00000
 YZ Ag  12   0.00140     0.00000     0.12420     0.00000    -0.00000     0.08488
  
  S Ag  13   0.02197    -0.00805    -0.02462     0.04277    -0.02908     0.01254
 PX Ag  13  -0.03508     0.01578     0.02354     0.00610    -0.01001    -0.01382
 PY Ag  13   0.00747     0.02427     0.03146     0.02873    -0.01099    -0.02139
 PZ Ag  13   0.02296     0.00525     0.01680    -0.02803    -0.00529     0.00878
 Z2 Ag  13  -0.05007     0.00283     0.01151    -0.02205     0.02469    -0.04430
 X2 Ag  13   0.04233    -0.00979    -0.14633    -0.09160     0.07090     0.05370
 XY Ag  13   0.09175    -0.00900    -0.08879    -0.04417    -0.03658     0.05872
 XZ Ag  13   0.07497    -0.15036    -0.01823    -0.01956     0.08388     0.11805
 YZ Ag  13  -0.06042    -0.25566    -0.01749    -0.06710     0.11339     0.20814
  
  S Ag  14   0.01374     0.00066     0.00042     0.00041     0.00535    -0.00278
 PX Ag  14  -0.02253     0.00991    -0.00110     0.01017    -0.01885     0.01225
 PY Ag  14   0.03274     0.02059     0.00847     0.00388     0.01068    -0.00858
 PZ Ag  14  -0.05905    -0.00317    -0.01264     0.02013     0.00686    -0.00490
 Z2 Ag  14   0.07887    -0.04216    -0.14073     0.24328    -0.02838    -0.02445
 X2 Ag  14  -0.02983    -0.10815    -0.08500     0.05584     0.02779     0.17651
 XY Ag  14   0.11916    -0.02209     0.07778    -0.17582     0.14611     0.02984
 XZ Ag  14  -0.08768    -0.17709    -0.10608     0.03390     0.10477     0.02863
 YZ Ag  14   0.02756    -0.26950    -0.05712    -0.15720     0.03057     0.13830
  
  S Ag  15   0.01374    -0.00066     0.00042    -0.00041    -0.00535    -0.00278
 PX Ag  15   0.02253     0.00991     0.00110     0.01017    -0.01885    -0.01225
 PY Ag  15   0.03274    -0.02059     0.00847    -0.00388    -0.01068    -0.00858
 PZ Ag  15  -0.05905     0.00317    -0.01264    -0.02013    -0.00686    -0.00490
 Z2 Ag  15   0.07887     0.04216    -0.14073    -0.24328     0.02838    -0.02445
 X2 Ag  15  -0.02983     0.10815    -0.08500    -0.05584    -0.02779     0.17651
 XY Ag  15  -0.11916    -0.02209    -0.07778    -0.17582     0.14611    -0.02984
 XZ Ag  15   0.08768    -0.17709     0.10608     0.03390     0.10477    -0.02863
 YZ Ag  15   0.02756     0.26950    -0.05712     0.15720    -0.03057     0.13830
  
  S Ag  16   0.01027     0.00000     0.05043     0.00000     0.00000    -0.03717
 PX Ag  16   0.00000    -0.04133    -0.00000     0.03776    -0.03024    -0.00000
 PY Ag  16  -0.03818    -0.00000    -0.01125    -0.00000     0.00000    -0.00648
 PZ Ag  16   0.02711    -0.00000    -0.03243    -0.00000    -0.00000    -0.00038
 Z2 Ag  16  -0.09057    -0.00000    -0.02698    -0.00000     0.00000    -0.00145
 X2 Ag  16   0.00725     0.00000     0.01076     0.00000     0.00000    -0.09027
 XY Ag  16  -0.00000     0.07041     0.00000    -0.18551     0.09022     0.00000
 XZ Ag  16   0.00000     0.30297    -0.00000     0.02683     0.28253     0.00000
 YZ Ag  16   0.12677     0.00000     0.02154     0.00000    -0.00000     0.02643
  
  S Ag  17   0.02008    -0.00739     0.02546     0.04262     0.02466     0.00873
 PX Ag  17   0.01047    -0.01809     0.03547     0.01131     0.00615     0.02152
 PY Ag  17  -0.00552     0.02049    -0.02613     0.03940     0.02057    -0.01667
 PZ Ag  17   0.01994    -0.00041     0.00096     0.00053     0.02403     0.01512
 Z2 Ag  17  -0.06750    -0.00018    -0.00576    -0.00769    -0.06267    -0.02621
 X2 Ag  17   0.00399     0.03521     0.22822    -0.13833    -0.10866     0.23372
 XY Ag  17  -0.01160    -0.01755    -0.14292     0.06046     0.10636    -0.09410
 XZ Ag  17   0.10025     0.09747    -0.00586    -0.00561     0.13026     0.08898
 YZ Ag  17   0.15150    -0.16146    -0.01157    -0.03885     0.08250     0.04124
  
  S Ag  18   0.02008     0.00739     0.02546    -0.04262    -0.02466     0.00873
 PX Ag  18  -0.01047    -0.01809    -0.03547     0.01131     0.00615    -0.02152
 PY Ag  18  -0.00552    -0.02049    -0.02613    -0.03940    -0.02057    -0.01667
 PZ Ag  18   0.01994     0.00041     0.00096    -0.00053    -0.02403     0.01512
 Z2 Ag  18  -0.06750     0.00018    -0.00576     0.00769     0.06267    -0.02621
 X2 Ag  18   0.00399    -0.03521     0.22822     0.13833     0.10866     0.23372
 XY Ag  18   0.01160    -0.01755     0.14292     0.06046     0.10636     0.09410
 XZ Ag  18  -0.10025     0.09747     0.00586    -0.00561     0.13026    -0.08898
 YZ Ag  18   0.15150     0.16146    -0.01157     0.03885    -0.08250     0.04124
  
  S Ag  19   0.01000    -0.00000    -0.04963    -0.00000     0.00000    -0.03304
 PX Ag  19   0.00000     0.03820     0.00000    -0.04032    -0.02992    -0.00000
 PY Ag  19  -0.01099     0.00000     0.03452     0.00000    -0.00000     0.01622
 PZ Ag  19   0.03534    -0.00000    -0.00058    -0.00000     0.00000    -0.02611
 Z2 Ag  19  -0.02803     0.00000     0.00699     0.00000    -0.00000     0.07899
 X2 Ag  19  -0.00946    -0.00000    -0.01916    -0.00000    -0.00000     0.03004
 XY Ag  19  -0.00000    -0.04148    -0.00000     0.30677     0.29368     0.00000
 XZ Ag  19  -0.00000    -0.18144     0.00000    -0.03943    -0.00887    -0.00000
 YZ Ag  19  -0.18264    -0.00000    -0.02985    -0.00000    -0.00000     0.16698
  
  S Ag  20   0.03739     0.00000     0.00064     0.00000    -0.00000     0.00111
 PX Ag  20  -0.00000     0.00522     0.00000    -0.02698    -0.02632    -0.00000
 PY Ag  20   0.00859    -0.00000    -0.02782    -0.00000     0.00000    -0.02598
 PZ Ag  20  -0.03679    -0.00000    -0.00067    -0.00000     0.00000    -0.00164
 Z2 Ag  20   0.14398     0.00000     0.00281     0.00000    -0.00000     0.01722
 X2 Ag  20  -0.00366    -0.00000    -0.06828    -0.00000     0.00000    -0.02665
 XY Ag  20   0.00000     0.01151     0.00000    -0.06721    -0.02828    -0.00000
 XZ Ag  20   0.00000    -0.02368    -0.00000     0.12296     0.29097     0.00000
 YZ Ag  20  -0.03395     0.00000     0.12732     0.00000    -0.00000     0.28780




    ROOT NO.   25          26          27          28          29          30

           -14.42914   -14.42014   -14.39821   -14.39785   -14.39642   -14.29965
  
  
  S Ag   1   0.00128    -0.02715     0.00009     0.00000    -0.00026     0.00050
 PX Ag   1  -0.00316    -0.00085    -0.01172    -0.01170    -0.00000     0.01833
 PY Ag   1  -0.00619    -0.00105     0.00400     0.02311    -0.00951    -0.02870
 PZ Ag   1   0.02453    -0.00041     0.02301    -0.00399     0.01364    -0.00454
 Z2 Ag   1   0.11905    -0.02016     0.12769    -0.02204     0.07654    -0.02325
 X2 Ag   1  -0.00778     0.02937    -0.05990    -0.14589     0.04544     0.31363
 XY Ag   1  -0.09021     0.03910     0.02038     0.08708    -0.03394    -0.16227
 XZ Ag   1   0.21696     0.03350     0.08354    -0.00946     0.04843     0.03182
 YZ Ag   1   0.10496     0.01646     0.04460    -0.01698     0.03280    -0.14088
  
  S Ag   2  -0.01669     0.03038     0.01020     0.00984     0.00038     0.02349
 PX Ag   2   0.00808    -0.01646     0.01865     0.01859    -0.00032    -0.04242
 PY Ag   2  -0.01456     0.01811     0.01924     0.00434     0.03295    -0.00881
 PZ Ag   2   0.02354     0.01457    -0.00222     0.01863    -0.04621     0.01323
 Z2 Ag   2   0.17435     0.09372    -0.05149     0.17887    -0.14166    -0.03657
 X2 Ag   2   0.07376    -0.17121    -0.15444    -0.02047    -0.08386     0.12450
 XY Ag   2   0.12475    -0.14109    -0.01703    -0.03959     0.15277     0.03240
 XZ Ag   2  -0.10521    -0.09852    -0.03428    -0.00422    -0.22013    -0.09304
 YZ Ag   2   0.10892     0.03443    -0.07907     0.01583    -0.05910    -0.06393
  
  S Ag   3  -0.01669     0.03038    -0.01020    -0.00984     0.00038    -0.02349
 PX Ag   3  -0.00808     0.01646     0.01865     0.01859     0.00032    -0.04242
 PY Ag   3  -0.01456     0.01811    -0.01924    -0.00434     0.03295     0.00881
 PZ Ag   3   0.02354     0.01457     0.00222    -0.01863    -0.04621    -0.01323
 Z2 Ag   3   0.17435     0.09372     0.05149    -0.17887    -0.14166     0.03657
 X2 Ag   3   0.07376    -0.17121     0.15444     0.02047    -0.08386    -0.12450
 XY Ag   3  -0.12475     0.14109    -0.01703    -0.03959    -0.15277     0.03240
 XZ Ag   3   0.10521     0.09852    -0.03428    -0.00422     0.22013    -0.09304
 YZ Ag   3   0.10892     0.03443     0.07907    -0.01583    -0.05910     0.06393
  
  S Ag   4   0.00128    -0.02715    -0.00009    -0.00000    -0.00026    -0.00050
 PX Ag   4   0.00316     0.00085    -0.01172    -0.01170     0.00000     0.01833
 PY Ag   4  -0.00619    -0.00105    -0.00400    -0.02311    -0.00951     0.02870
 PZ Ag   4   0.02453    -0.00041    -0.02301     0.00399     0.01364     0.00454
 Z2 Ag   4   0.11905    -0.02016    -0.12769     0.02204     0.07654     0.02325
 X2 Ag   4  -0.00778     0.02937     0.05990     0.14589     0.04544    -0.31363
 XY Ag   4   0.09021    -0.03910     0.02038     0.08708     0.03394    -0.16227
 XZ Ag   4  -0.21696    -0.03350     0.08354    -0.00946    -0.04843     0.03182
 YZ Ag   4   0.10496     0.01646    -0.04460     0.01698     0.03280     0.14088
  
  S Ag   5  -0.02389     0.02920     0.00219    -0.01203     0.00772    -0.01922
 PX Ag   5  -0.00172     0.00890     0.03270    -0.02303     0.00622     0.03262
 PY Ag   5   0.01999    -0.02277    -0.01458    -0.01269     0.01145     0.02355
 PZ Ag   5   0.01951     0.01316    -0.04531    -0.01067     0.01897    -0.02407
 Z2 Ag   5   0.15572     0.08967    -0.19134    -0.13834     0.00457     0.00979
 X2 Ag   5   0.10758    -0.02761     0.18359    -0.01846    -0.02984     0.01358
 XY Ag   5   0.09444    -0.22271    -0.04999     0.07024    -0.12281    -0.12933
 XZ Ag   5   0.06368    -0.01839    -0.18061     0.03409     0.00584     0.10018
 YZ Ag   5  -0.11460    -0.10121    -0.12975     0.03273     0.08765     0.08809
  
  S Ag   6  -0.00637    -0.02390    -0.00000    -0.00000    -0.00034     0.00000
 PX Ag   6  -0.00000    -0.00000    -0.10980     0.01870    -0.00000    -0.00617
 PY Ag   6   0.00078     0.00172     0.00000    -0.00000    -0.11139     0.00000
 PZ Ag   6   0.02769    -0.03971    -0.00000    -0.00000    -0.00041     0.00000
 Z2 Ag   6   0.14303    -0.17563    -0.00000    -0.00000    -0.00157     0.00000
 X2 Ag   6   0.03576     0.00519    -0.00000     0.00000     0.03144     0.00000
 XY Ag   6  -0.00000    -0.00000     0.02982    -0.00562     0.00000    -0.02273
 XZ Ag   6  -0.00000    -0.00000     0.24457    -0.04189     0.00000     0.02639
 YZ Ag   6   0.01925     0.00034    -0.00000     0.00000     0.25053    -0.00000
  
  S Ag   7  -0.02389     0.02920    -0.00219     0.01203     0.00772     0.01922
 PX Ag   7   0.00172    -0.00890     0.03270    -0.02303    -0.00622     0.03262
 PY Ag   7   0.01999    -0.02277     0.01458     0.01269     0.01145    -0.02355
 PZ Ag   7   0.01951     0.01316     0.04531     0.01067     0.01897     0.02407
 Z2 Ag   7   0.15572     0.08967     0.19134     0.13834     0.00457    -0.00979
 X2 Ag   7   0.10758    -0.02761    -0.18359     0.01846    -0.02984    -0.01358
 XY Ag   7  -0.09444     0.22271    -0.04999     0.07024     0.12281    -0.12933
 XZ Ag   7  -0.06368     0.01839    -0.18061     0.03409    -0.00584     0.10018
 YZ Ag   7  -0.11460    -0.10121     0.12975    -0.03273     0.08765    -0.08809
  
  S Ag   8  -0.02515     0.02909    -0.00253     0.01184    -0.00703     0.01830
 PX Ag   8  -0.01260     0.02531     0.01936    -0.00772    -0.02094     0.00967
 PY Ag   8  -0.00154     0.00427    -0.00697    -0.02164     0.02741     0.03637
 PZ Ag   8   0.02016     0.01304    -0.03434     0.02406     0.02847     0.01331
 Z2 Ag   8   0.13541     0.08335    -0.05517     0.17906     0.14538    -0.04828
 X2 Ag   8  -0.12614     0.21041    -0.10963     0.07888    -0.02256    -0.10500
 XY Ag   8  -0.00742    -0.08421    -0.06932    -0.00818     0.17946     0.06280
 XZ Ag   8   0.14361     0.07982     0.07728    -0.00630     0.02016     0.01395
 YZ Ag   8   0.01887     0.07070     0.15324    -0.01891    -0.16795     0.13847
  
  S Ag   9  -0.02515     0.02909     0.00253    -0.01184    -0.00703    -0.01830
 PX Ag   9   0.01260    -0.02531     0.01936    -0.00772     0.02094     0.00967
 PY Ag   9  -0.00154     0.00427     0.00697     0.02164     0.02741    -0.03637
 PZ Ag   9   0.02016     0.01304     0.03434    -0.02406     0.02847    -0.01331
 Z2 Ag   9   0.13541     0.08335     0.05517    -0.17906     0.14538     0.04828
 X2 Ag   9  -0.12614     0.21041     0.10963    -0.07888    -0.02256     0.10500
 XY Ag   9   0.00742     0.08421    -0.06932    -0.00818    -0.17946     0.06280
 XZ Ag   9  -0.14361    -0.07982     0.07728    -0.00630    -0.02016     0.01395
 YZ Ag   9   0.01887     0.07070    -0.15324     0.01891    -0.16795    -0.13847
  
  S Ag  10   0.00187    -0.02715     0.00000    -0.00000    -0.00068     0.00000
 PX Ag  10   0.00000    -0.00000    -0.00457     0.02838    -0.00000    -0.03074
 PY Ag  10   0.00298     0.00101     0.00000    -0.00000    -0.00943    -0.00000
 PZ Ag  10   0.02371    -0.00000     0.00000    -0.00000    -0.02661    -0.00000
 Z2 Ag  10   0.09995    -0.02047     0.00000    -0.00000    -0.14900    -0.00000
 X2 Ag  10   0.05184    -0.05334    -0.00000    -0.00000    -0.01505    -0.00000
 XY Ag  10  -0.00000    -0.00000     0.03089    -0.18673     0.00000     0.33130
 XZ Ag  10   0.00000    -0.00000     0.00371    -0.01022     0.00000    -0.11795
 YZ Ag  10  -0.23671    -0.03888    -0.00000     0.00000     0.10679     0.00000
  
  S Ag  11   0.02075     0.03009    -0.01177     0.00185    -0.00629    -0.00355
 PX Ag  11  -0.01509     0.00857    -0.02291     0.03269    -0.00591     0.03142
 PY Ag  11  -0.01358     0.00444    -0.01388    -0.04740    -0.02144    -0.04774
 PZ Ag  11  -0.02871    -0.02673    -0.00834     0.00149    -0.00542     0.00573
 Z2 Ag  11   0.16819     0.05365     0.04125    -0.00711     0.02740    -0.01106
 X2 Ag  11  -0.02387    -0.05316     0.08569     0.29072     0.04608     0.03575
 XY Ag  11  -0.06800    -0.09648     0.05595    -0.18533     0.03240    -0.01282
 XZ Ag  11   0.05448    -0.20581     0.05414     0.01171     0.11296    -0.08713
 YZ Ag  11   0.08017    -0.10982     0.10624    -0.05434    -0.08178     0.12446
  
  S Ag  12   0.00327    -0.02390     0.00000    -0.00000    -0.00024     0.00000
 PX Ag  12   0.00000     0.00000     0.01841    -0.10955     0.00000    -0.03126
 PY Ag  12  -0.01250    -0.03890    -0.00000     0.00000     0.03610    -0.00000
 PZ Ag  12   0.00422     0.01184    -0.00000     0.00000     0.10582    -0.00000
 Z2 Ag  12   0.22593     0.05609    -0.00000     0.00000     0.15839     0.00000
 X2 Ag  12  -0.01415     0.13645    -0.00000     0.00000     0.06459    -0.00000
 XY Ag  12  -0.00000    -0.00000    -0.04215     0.23796    -0.00000     0.08254
 XZ Ag  12  -0.00000    -0.00000     0.01253    -0.05410     0.00000    -0.19995
 YZ Ag  12   0.00754     0.10163     0.00000    -0.00000    -0.18196     0.00000
  
  S Ag  13   0.02075     0.03009     0.01177    -0.00185    -0.00629     0.00355
 PX Ag  13   0.01509    -0.00857    -0.02291     0.03269     0.00591     0.03142
 PY Ag  13  -0.01358     0.00444     0.01388     0.04740    -0.02144     0.04774
 PZ Ag  13  -0.02871    -0.02673     0.00834    -0.00149    -0.00542    -0.00573
 Z2 Ag  13   0.16819     0.05365    -0.04125     0.00711     0.02740     0.01106
 X2 Ag  13  -0.02387    -0.05316    -0.08569    -0.29072     0.04608    -0.03575
 XY Ag  13   0.06800     0.09648     0.05595    -0.18533    -0.03240    -0.01282
 XZ Ag  13  -0.05448     0.20581     0.05414     0.01171    -0.11296    -0.08713
 YZ Ag  13   0.08017    -0.10982    -0.10624     0.05434    -0.08178    -0.12446
  
  S Ag  14   0.00186    -0.02402    -0.00001    -0.00006    -0.00032    -0.00026
 PX Ag  14  -0.00499    -0.03229     0.04531     0.04551    -0.00046     0.01801
 PY Ag  14   0.00240     0.01793     0.01485     0.08956     0.03726     0.02903
 PZ Ag  14   0.00413     0.01411     0.09002    -0.01536    -0.05238     0.00451
 Z2 Ag  14   0.23752     0.06272     0.13316    -0.02288    -0.07384    -0.00906
 X2 Ag  14   0.04939    -0.06064    -0.09365    -0.18457    -0.04416    -0.08336
 XY Ag  14  -0.02564     0.11705     0.00600    -0.11731    -0.06055    -0.02289
 XZ Ag  14  -0.00223     0.08332    -0.12644     0.04723     0.09025     0.09171
 YZ Ag  14   0.02787    -0.04329     0.09376     0.02904    -0.03044     0.20949
  
  S Ag  15   0.00186    -0.02402     0.00001     0.00006    -0.00032     0.00026
 PX Ag  15   0.00499     0.03229     0.04531     0.04551     0.00046     0.01801
 PY Ag  15   0.00240     0.01793    -0.01485    -0.08956     0.03726    -0.02903
 PZ Ag  15   0.00413     0.01411    -0.09002     0.01536    -0.05238    -0.00451
 Z2 Ag  15   0.23752     0.06272    -0.13316     0.02288    -0.07384     0.00906
 X2 Ag  15   0.04939    -0.06064     0.09365     0.18457    -0.04416     0.08336
 XY Ag  15   0.02564    -0.11705     0.00600    -0.11731     0.06055    -0.02289
 XZ Ag  15   0.00223    -0.08332    -0.12644     0.04723    -0.09025     0.09171
 YZ Ag  15   0.02787    -0.04329    -0.09376    -0.02904    -0.03044    -0.20949
  
  S Ag  16   0.01207     0.02817    -0.00000     0.00000     0.01433    -0.00000
 PX Ag  16   0.00000     0.00000    -0.02670    -0.05277     0.00000    -0.05572
 PY Ag  16   0.01933    -0.00900     0.00000    -0.00000    -0.03137    -0.00000
 PZ Ag  16  -0.03045    -0.02724    -0.00000     0.00000     0.00864     0.00000
 Z2 Ag  16   0.17566     0.05600     0.00000    -0.00000    -0.04575    -0.00000
 X2 Ag  16   0.04974     0.10488    -0.00000     0.00000     0.10885    -0.00000
 XY Ag  16  -0.00000    -0.00000     0.08245     0.33768    -0.00000     0.07821
 XZ Ag  16  -0.00000     0.00000    -0.15357    -0.01797    -0.00000     0.10472
 YZ Ag  16  -0.08320     0.23159    -0.00000     0.00000     0.12079     0.00000
  
  S Ag  17   0.02707     0.02976     0.01212    -0.00222     0.00784     0.00212
 PX Ag  17  -0.00894     0.02433    -0.00761     0.01943     0.02158     0.00838
 PY Ag  17  -0.00947     0.01407     0.01592    -0.03425    -0.03547    -0.00868
 PZ Ag  17  -0.00559     0.00022    -0.02802     0.00473    -0.01654     0.00524
 Z2 Ag  17  -0.01785    -0.22616    -0.10894     0.01912    -0.06755     0.00636
 X2 Ag  17  -0.00793     0.03073    -0.08888    -0.06759     0.07183    -0.01732
 XY Ag  17  -0.09422     0.04410    -0.00755     0.04908    -0.07607     0.01145
 XZ Ag  17  -0.01519    -0.09941    -0.00329    -0.09149    -0.16662    -0.07188
 YZ Ag  17  -0.01355    -0.06268    -0.13709     0.18291     0.20300     0.17967
  
  S Ag  18   0.02707     0.02976    -0.01212     0.00222     0.00784    -0.00212
 PX Ag  18   0.00894    -0.02433    -0.00761     0.01943    -0.02158     0.00838
 PY Ag  18  -0.00947     0.01407    -0.01592     0.03425    -0.03547     0.00868
 PZ Ag  18  -0.00559     0.00022     0.02802    -0.00473    -0.01654    -0.00524
 Z2 Ag  18  -0.01785    -0.22616     0.10894    -0.01912    -0.06755    -0.00636
 X2 Ag  18  -0.00793     0.03073     0.08888     0.06759     0.07183     0.01732
 XY Ag  18   0.09422    -0.04410    -0.00755     0.04908     0.07607     0.01145
 XZ Ag  18   0.01519     0.09941    -0.00329    -0.09149     0.16662    -0.07188
 YZ Ag  18  -0.01355    -0.06268     0.13709    -0.18291     0.20300    -0.17967
  
  S Ag  19   0.02050     0.02907     0.00000    -0.00000    -0.01339     0.00000
 PX Ag  19   0.00000     0.00000    -0.05314    -0.02709    -0.00000    -0.02329
 PY Ag  19   0.01667    -0.02752    -0.00000     0.00000     0.00118    -0.00000
 PZ Ag  19  -0.01313    -0.00184    -0.00000     0.00000     0.03255     0.00000
 Z2 Ag  19  -0.00156    -0.22712    -0.00000     0.00000     0.12483     0.00000
 X2 Ag  19   0.09803    -0.04973     0.00000    -0.00000    -0.05873     0.00000
 XY Ag  19  -0.00000     0.00000     0.09848    -0.11471     0.00000    -0.00176
 XZ Ag  19   0.00000    -0.00000     0.32472     0.12937     0.00000     0.18610
 YZ Ag  19   0.06727     0.12806     0.00000    -0.00000    -0.07796    -0.00000
  
  S Ag  20  -0.00231    -0.02742     0.00000    -0.00000    -0.00048     0.00000
 PX Ag  20   0.00000    -0.00000     0.02795    -0.00467     0.00000    -0.00466
 PY Ag  20  -0.00459    -0.00121    -0.00000     0.00000     0.02834     0.00000
 PZ Ag  20   0.00988     0.00166    -0.00000     0.00000     0.00021     0.00000
 Z2 Ag  20  -0.11539     0.06242     0.00000    -0.00000    -0.00084    -0.00000
 X2 Ag  20  -0.00343     0.00099     0.00000    -0.00000    -0.07101     0.00000
 XY Ag  20   0.00000    -0.00000    -0.07057     0.01271    -0.00000     0.00708
 XZ Ag  20  -0.00000    -0.00000    -0.16821     0.02813    -0.00000     0.06144
 YZ Ag  20   0.05037     0.01153     0.00000    -0.00000    -0.16872    -0.00000




    ROOT NO.   31          32          33          34          35          36

           -14.29946   -14.29912   -14.28698   -14.28674   -14.28560   -14.23936
  
  
  S Ag   1   0.00044    -0.00015    -0.01358     0.00959     0.00037    -0.00034
 PX Ag   1  -0.00033     0.00901    -0.00120    -0.00766    -0.00047     0.00009
 PY Ag   1   0.01213     0.00434     0.00549     0.00532     0.00762    -0.00861
 PZ Ag   1  -0.01677    -0.02878     0.00381     0.00511    -0.00981     0.01201
 Z2 Ag   1  -0.10415    -0.17796    -0.09461    -0.06840     0.18784    -0.03897
 X2 Ag   1  -0.05651     0.06217     0.09945     0.04553     0.10994    -0.01666
 XY Ag   1   0.10481     0.09284    -0.00447    -0.13957     0.03300    -0.02067
 XZ Ag   1  -0.16047    -0.23024    -0.00100    -0.08685    -0.05506     0.02647
 YZ Ag   1  -0.03793    -0.13757     0.10377     0.09886     0.08190    -0.01305
  
  S Ag   2  -0.00077     0.01130    -0.02670    -0.01808    -0.00121    -0.00038
 PX Ag   2   0.00041    -0.02113    -0.00986     0.00925     0.00093    -0.00051
 PY Ag   2   0.02508     0.01869    -0.00433    -0.01725     0.00528    -0.01233
 PZ Ag   2  -0.03662    -0.02622    -0.00350    -0.00886    -0.00968     0.01715
 Z2 Ag   2  -0.11421    -0.03686    -0.07134    -0.08320    -0.11325     0.20753
 X2 Ag   2  -0.05526     0.05256     0.08314     0.19100    -0.05586     0.12349
 XY Ag   2   0.02903    -0.12272    -0.07429     0.06229    -0.16870     0.04005
 XZ Ag   2  -0.03252     0.14800    -0.05237     0.03988     0.23878    -0.05907
[...]
    Config     265  -0.06546331  0.00428544
    Config     286   0.07088103  0.00502412
    Config     287   0.08949066  0.00800858
    Config     290   0.38306387  0.14673792
    Config     291   0.38853623  0.15096040
    Config     292  -0.34618286  0.11984257
    Config     296  -0.43858924  0.19236052
    Config     300   0.43649397  0.19052698
    Config     301   0.40705938  0.16569734
 Total coeff printed             0.99473195
  
State  290  9.1150     CI coeff  CI percent
    Config     233  -0.08612992  0.00741836
    Config     238   0.04098624  0.00167987
    Config     240   0.04520940  0.00204389
    Config     241   0.05107259  0.00260841
    Config     247   0.08012311  0.00641971
    Config     253  -0.06156620  0.00379040
    Config     254  -0.06161037  0.00379584
    Config     259   0.04437800  0.00196941
    Config     260   0.04798795  0.00230284
    Config     262  -0.06257220  0.00391528
    Config     272  -0.21968689  0.04826233
    Config     280   0.19997155  0.03998862
    Config     284  -0.16610144  0.02758969
    Config     285   0.26082619  0.06803030
    Config     288   0.40468998  0.16377398
    Config     289   0.45257936  0.20482808
    Config     293  -0.15040417  0.02262141
    Config     294  -0.15297744  0.02340210
    Config     298   0.42140393  0.17758127
    Config     299  -0.42434199  0.18006612
 Total coeff printed             0.99208792
  
State  291  9.1150     CI coeff  CI percent
    Config     234  -0.08550503  0.00731111
    Config     246  -0.07681484  0.00590052
    Config     248   0.04902665  0.00240361
    Config     249  -0.05441809  0.00296133
    Config     255   0.06175535  0.00381372
    Config     256   0.05940290  0.00352870
    Config     261  -0.05282052  0.00279001
    Config     263   0.04747026  0.00225343
    Config     264   0.05436920  0.00295601
    Config     273  -0.21856703  0.04777154
    Config     278   0.05659204  0.00320266
    Config     279  -0.19122801  0.03656815
    Config     286   0.28857772  0.08327710
    Config     287  -0.36838281  0.13570589
    Config     290  -0.28854211  0.08325655
    Config     291   0.39248978  0.15404823
    Config     292   0.08352611  0.00697661
    Config     295  -0.32472516  0.10544643
    Config     296   0.20247095  0.04099448
    Config     297   0.31438886  0.09884035
    Config     300   0.36871548  0.13595110
    Config     301  -0.15474921  0.02394732
 Total coeff printed             0.98990487
  
State  292  9.1161     CI coeff  CI percent
    Config     235   0.08598781  0.00739390
    Config     245   0.07541731  0.00568777
    Config     250   0.06934282  0.00480843
    Config     251  -0.05983458  0.00358018
    Config     252   0.06151604  0.00378422
    Config     265  -0.07665138  0.00587543
    Config     274   0.21863273  0.04780027
    Config     278   0.18840164  0.03549518
    Config     279   0.05626722  0.00316600
    Config     286   0.15690012  0.02461765
    Config     287  -0.09159250  0.00838919
    Config     290  -0.24155026  0.05834653
    Config     291  -0.26130321  0.06827937
    Config     292  -0.55171140  0.30438547
    Config     295  -0.19851805  0.03940942
    Config     296   0.17990529  0.03236591
    Config     297   0.20107766  0.04043222
    Config     300  -0.24196677  0.05854792
    Config     301   0.48492021  0.23514761
 Total coeff printed             0.98751267
  
State  293  9.2542     CI coeff  CI percent
    Config     251  -0.04022903  0.00161837
    Config     252  -0.05099487  0.00260048
    Config     255   0.10360768  0.01073455
    Config     256  -0.10841820  0.01175451
    Config     258   0.06273782  0.00393603
    Config     261   0.04664271  0.00217554
    Config     263   0.04167750  0.00173701
    Config     286   0.04414822  0.00194907
    Config     290   0.04622235  0.00213651
    Config     295   0.38209046  0.14599312
    Config     296   0.66119774  0.43718245
    Config     297  -0.37201753  0.13839704
    Config     300   0.39629555  0.15705016
    Config     301   0.26474245  0.07008857
 Total coeff printed             0.98735341
  
State  294  9.2544     CI coeff  CI percent
    Config     243  -0.06775744  0.00459107
    Config     244   0.10330109  0.01067112
    Config     253  -0.06747822  0.00455331
    Config     254   0.07479968  0.00559499
    Config     257  -0.06674164  0.00445445
    Config     259  -0.05007252  0.00250726
    Config     260   0.04443803  0.00197474
    Config     284   0.05475382  0.00299798
    Config     285  -0.05105252  0.00260636
    Config     293  -0.65939396  0.43480039
    Config     294  -0.63786223  0.40686822
    Config     298  -0.23723208  0.05627906
    Config     299   0.22525843  0.05074136
 Total coeff printed             0.98864031
  
State  295  9.3047     CI coeff  CI percent
    Config     209  -0.06198378  0.00384199
    Config     230  -0.04130425  0.00170604
    Config     251  -0.04106394  0.00168625
    Config     258  -0.09367068  0.00877420
    Config     261   0.09218231  0.00849758
    Config     263   0.05018015  0.00251805
    Config     265   0.05038335  0.00253848
    Config     268  -0.04571973  0.00209029
    Config     275   0.04490400  0.00201637
    Config     276  -0.07985262  0.00637644
    Config     281  -0.13125335  0.01722744
    Config     295   0.67702027  0.45835645
    Config     297   0.68613498  0.47078120
 Total coeff printed             0.98641078
  
State  296  9.3049     CI coeff  CI percent
    Config     210  -0.06063072  0.00367608
    Config     231  -0.04048269  0.00163885
    Config     257  -0.09940298  0.00988095
    Config     260  -0.10526389  0.01108049
    Config     269  -0.04322766  0.00186863
    Config     277  -0.08845783  0.00782479
    Config     282  -0.08490073  0.00720813
    Config     283  -0.10342020  0.01069574
    Config     293  -0.63612036  0.40464911
    Config     294   0.65809521  0.43308931
    Config     298  -0.20738969  0.04301048
    Config     299  -0.22019612  0.04848633
 Total coeff printed             0.98310889
  
State  297  9.3058     CI coeff  CI percent
    Config     211   0.06053520  0.00366451
    Config     232   0.04043998  0.00163539
    Config     242   0.04822185  0.00232535
    Config     259  -0.10470348  0.01096282
    Config     262  -0.10037994  0.01007613
    Config     266   0.04541035  0.00206210
    Config     267   0.04257323  0.00181248
    Config     282  -0.10944349  0.01197788
    Config     283   0.11347159  0.01287580
    Config     293   0.21713095  0.04714585
    Config     294  -0.21058884  0.04434766
    Config     298  -0.64993641  0.42241734
    Config     299  -0.64457766  0.41548036
 Total coeff printed             0.98678366
  
State  298  9.4472     CI coeff  CI percent
    Config     162   0.07083476  0.00501756
    Config     234  -0.13362423  0.01785544
    Config     246  -0.08297314  0.00688454
    Config     255  -0.05332642  0.00284371
    Config     256  -0.05196894  0.00270077
    Config     273  -0.15094166  0.02278339
    Config     279  -0.11478644  0.01317593
    Config     286   0.23248603  0.05404975
    Config     287  -0.31251202  0.09766376
    Config     290  -0.23542816  0.05542642
    Config     291   0.36506907  0.13327542
    Config     292   0.12134470  0.01472454
    Config     295   0.35007063  0.12254945
    Config     296  -0.21960092  0.04822456
    Config     297  -0.34780421  0.12096777
    Config     300  -0.45924948  0.21091008
    Config     301   0.23789951  0.05659618
 Total coeff printed             0.98564926
  
State  299  9.4473     CI coeff  CI percent
    Config     161  -0.07085469  0.00502039
    Config     233   0.13362345  0.01785523
    Config     247  -0.08443678  0.00712957
    Config     253  -0.05276963  0.00278463
    Config     254  -0.05273231  0.00278070
    Config     272   0.15089172  0.02276831
    Config     280  -0.11675605  0.01363197
    Config     284   0.14365647  0.02063718
    Config     285  -0.22560760  0.05089879
    Config     288  -0.35503891  0.12605263
    Config     289  -0.39501190  0.15603440
    Config     293  -0.17346534  0.03009022
    Config     294  -0.18113469  0.03280977
    Config     298   0.49678185  0.24679220
    Config     299  -0.50118688  0.25118828
 Total coeff printed             0.98647429
  
State  300  9.4487     CI coeff  CI percent
    Config     163   0.07047824  0.00496718
    Config     235  -0.13304236  0.01770027
    Config     245  -0.08305747  0.00689854
    Config     251  -0.05252035  0.00275839
    Config     252   0.05300275  0.00280929
    Config     265  -0.04565648  0.00208451
    Config     274  -0.15077092  0.02273187
    Config     278  -0.11483298  0.01318661
    Config     286  -0.16084996  0.02587271
    Config     287   0.11545774  0.01333049
    Config     290   0.25377906  0.06440381
    Config     291   0.21418697  0.04587606
    Config     292   0.45380937  0.20594294
    Config     295  -0.26857443  0.07213222
    Config     296   0.26173695  0.06850623
    Config     297   0.27479106  0.07551013
    Config     300  -0.26786207  0.07175009
    Config     301   0.52092893  0.27136695
 Total coeff printed             0.98782829
  
State  301  9.5526     CI coeff  CI percent
    Config     286  -0.09418275  0.00887039
    Config     287  -0.09323068  0.00869196
    Config     290  -0.41869752  0.17530762
    Config     291  -0.42854846  0.18365378
    Config     292   0.42360980  0.17944526
    Config     296  -0.38065685  0.14489964
    Config     300   0.37987682  0.14430640
    Config     301   0.38555455  0.14865231
 Total coeff printed             0.99382736
  

 -------------------------------------------------------------------------------
 INDO CIS C.I.=(40,20)
 Ag20



     1SCF WAS SPECIFIED, SO BFGS WAS NOT USED                 
     SCF FIELD WAS ACHIEVED                                   


                              INDO CALCULATION
                                                       MOPAC v22.0.6 MacOS
                                                       Wed Jul 12 16:25:30 2023


          COSMO AREA              =        366.15 SQUARE ANGSTROMS
          COSMO VOLUME            =        515.82 CUBIC ANGSTROMS

          IONIZATION POTENTIAL    =          7.433818 EV
          HOMO LUMO ENERGIES (EV) =         -7.434 -3.061
          NO. OF FILLED LEVELS    =        110
          MOLECULAR WEIGHT        =       2157.3600         POINT GROUP:  Td  

          MOLECULAR DIMENSIONS (Angstroms)

            Atom       Atom       Distance
           Ag     4   Ag     1     8.36850
           Ag    20   Ag    10     8.36849
           Ag    19   Ag     2     6.18612


          SCF CALCULATIONS        =          1

          WALL-CLOCK TIME         =     12.770 SECONDS
          COMPUTATION TIME        =     13.416 SECONDS




   ATOM   CHEMICAL          X               Y               Z
  NUMBER   SYMBOL      (ANGSTROMS)     (ANGSTROMS)     (ANGSTROMS)

     1      Ag         -4.18425000  *  -2.41578000  *  -1.70821000  *
     2      Ag         -1.38662000  *  -2.52547000  *  -1.78578000  *
     3      Ag          1.38662000  *  -2.52547000  *  -1.78578000  *
     4      Ag          4.18425000  *  -2.41578000  *  -1.70821000  *
     5      Ag         -2.88043000  *   0.06189000  *  -1.78578000  *
     6      Ag          0.00000000  *   0.00000000  *  -1.89153000  *
     7      Ag          2.88043000  *   0.06189000  *  -1.78578000  *
     8      Ag         -1.49381000  *   2.46358000  *  -1.78578000  *
     9      Ag          1.49381000  *   2.46358000  *  -1.78578000  *
    10      Ag          0.00000000  *   4.83155000  *  -1.70821000  *
    11      Ag         -2.88043000  *  -1.66302000  *   0.65361000  *
    12      Ag          0.00000000  *  -1.78335000  *   0.63051000  *
    13      Ag          2.88043000  *  -1.66302000  *   0.65361000  *
    14      Ag         -1.54443000  *   0.89167000  *   0.63051000  *
    15      Ag          1.54443000  *   0.89167000  *   0.63051000  *
    16      Ag          0.00000000  *   3.32604000  *   0.65361000  *
    17      Ag         -1.49381000  *  -0.86245000  *   2.91795000  *
    18      Ag          1.49381000  *  -0.86245000  *   2.91795000  *
    19      Ag          0.00000000  *   1.72491000  *   2.91795000  *
    20      Ag          0.00000000  *   0.00000000  *   5.12463000  *

                             CARTESIAN COORDINATES

   1   Ag       -4.184250000    -2.415780000    -1.708210000
   2   Ag       -1.386620000    -2.525470000    -1.785780000
   3   Ag        1.386620000    -2.525470000    -1.785780000
   4   Ag        4.184250000    -2.415780000    -1.708210000
   5   Ag       -2.880430000     0.061890000    -1.785780000
   6   Ag        0.000000000     0.000000000    -1.891530000
   7   Ag        2.880430000     0.061890000    -1.785780000
   8   Ag       -1.493810000     2.463580000    -1.785780000
   9   Ag        1.493810000     2.463580000    -1.785780000
  10   Ag        0.000000000     4.831550000    -1.708210000
  11   Ag       -2.880430000    -1.663020000     0.653610000
  12   Ag        0.000000000    -1.783350000     0.630510000
  13   Ag        2.880430000    -1.663020000     0.653610000
  14   Ag       -1.544430000     0.891670000     0.630510000
  15   Ag        1.544430000     0.891670000     0.630510000
  16   Ag        0.000000000     3.326040000     0.653610000
  17   Ag       -1.493810000    -0.862450000     2.917950000
  18   Ag        1.493810000    -0.862450000     2.917950000
  19   Ag        0.000000000     1.724910000     2.917950000
  20   Ag        0.000000000     0.000000000     5.124630000


           Empirical Formula: Ag20  =    20 atoms



      MOLECULAR POINT GROUP   :   Td  


                  EIGENVALUES  
 -18.94841 -16.33519 -16.33442 -16.33434 -15.50368 -15.50352 -15.40362 -15.36145
 -15.36061 -15.36019 -15.09522 -15.09439 -15.09396 -15.00448 -14.77825 -14.77808
 -14.73843 -14.73828 -14.73701 -14.69483 -14.69404 -14.69392 -14.43011 -14.42969
 -14.42914 -14.42014 -14.39821 -14.39785 -14.39642 -14.29965 -14.29946 -14.29912
 -14.28698 -14.28674 -14.28560 -14.23936 -14.23913 -14.04944 -14.04824 -13.91887
 -13.91712 -13.91692 -13.89141 -13.89123 -13.82845 -13.82785 -13.82783 -13.77800
 -13.58795 -13.58693 -13.58661 -13.48946 -13.48755 -13.48735 -13.47814 -13.47806
 -13.47619 -13.43692 -13.43636 -13.43535 -13.42284 -13.42239 -13.35742 -13.35708
 -13.35564 -13.32183 -13.31852 -13.31847 -13.23309 -13.23305 -13.19184 -13.16932
 -13.12708 -13.12570 -13.10035 -13.09995 -13.09942 -13.02483 -13.02479 -13.02403
 -12.97917 -12.97875 -12.97796 -12.87395 -12.87301 -12.87229 -12.71523 -12.71503
 -12.71459 -12.66860 -12.66819 -12.66814 -12.60006 -12.58735 -12.58719 -12.41400
 -12.41396 -12.41282 -12.10590 -12.10368 -12.10310 -11.20560 -11.20478 -11.20466
  -8.05496  -7.62610  -7.62603  -7.62600  -7.43387  -7.43382  -3.06079  -3.06078
  -3.06052  -2.76269  -2.33941  -2.33899  -2.33898  -2.29496  -2.29469  -2.29468
  -1.54820  -1.28843  -1.28832  -1.28817  -0.76646  -0.76632  -0.50478  -0.35736
  -0.35723  -0.35694  -0.08095  -0.08094  -0.08064   0.32266   0.32284   0.42206
   0.42287   0.42309   0.86235   0.86278   0.86283   0.94249   0.94259   0.94292
   0.98931   1.76115   1.76129   1.89007   1.89011   1.89012   2.08519   2.08543
   2.08611   2.09654   2.09659   2.09702   2.17061   2.17142   2.17145   2.19442
   2.31356   2.41399   2.41474   2.41525   2.41895   2.41902   2.77528   2.77543
   2.77551   2.81873   2.81903   2.81967   2.83328   2.83331   3.84200   3.84243
   3.84247   4.39254   4.39313   4.39318


              NET ATOMIC CHARGES AND DIPOLE CONTRIBUTIONS

  ATOM NO.   TYPE          CHARGE      No. of ELECS.   s-Pop       p-Pop       d-Pop       
    1         Ag           0.073383       10.9266     0.87906     0.18484     9.86272
    2         Ag          -0.022274       11.0223     0.74777     0.48902     9.78548
    3         Ag          -0.022274       11.0223     0.74777     0.48902     9.78548
    4         Ag           0.073383       10.9266     0.87906     0.18484     9.86272
    5         Ag          -0.022240       11.0222     0.74777     0.48894     9.78552
    6         Ag          -0.006552       11.0066     0.62305     0.63403     9.74947
    7         Ag          -0.022240       11.0222     0.74777     0.48894     9.78552
    8         Ag          -0.022249       11.0222     0.74778     0.48895     9.78551
    9         Ag          -0.022249       11.0222     0.74778     0.48895     9.78551
   10         Ag           0.073386       10.9266     0.87908     0.18483     9.86271
   11         Ag          -0.022257       11.0223     0.74781     0.48893     9.78552
   12         Ag          -0.006576       11.0066     0.62307     0.63402     9.74949
   13         Ag          -0.022257       11.0223     0.74781     0.48893     9.78552
   14         Ag          -0.006589       11.0066     0.62310     0.63400     9.74949
   15         Ag          -0.006589       11.0066     0.62310     0.63400     9.74949
   16         Ag          -0.022282       11.0223     0.74785     0.48892     9.78551
   17         Ag          -0.022297       11.0223     0.74784     0.48895     9.78550
   18         Ag          -0.022297       11.0223     0.74784     0.48895     9.78550
   19         Ag          -0.022305       11.0223     0.74787     0.48894     9.78550
   20         Ag           0.073375       10.9266     0.87903     0.18484     9.86275
 DIPOLE           X         Y         Z       TOTAL
 POINT-CHG.     0.000     0.000    -0.003     0.003
 HYBRID         0.000    -0.000    -0.000     0.000
 SUM            0.000    -0.000    -0.003     0.003


          ATOMIC ORBITAL ELECTRON POPULATIONS

     Atom    s        px        py        pz      x^2-y^2     xz        z^2       yz        xy
    1 Ag   0.87906   0.07916   0.05576   0.04992   1.97266   1.96408   1.97144   1.97262   1.98193
    2 Ag   0.74777   0.27299   0.10864   0.10739   1.96152   1.94684   1.95047   1.95112   1.97554
    3 Ag   0.74777   0.27299   0.10864   0.10739   1.96152   1.94684   1.95047   1.95112   1.97554
    4 Ag   0.87906   0.07916   0.05576   0.04992   1.97266   1.96408   1.97144   1.97262   1.98193
    5 Ag   0.74777   0.14829   0.23329   0.10736   1.96152   1.94784   1.94947   1.96885   1.95783
    6 Ag   0.62305   0.24993   0.24994   0.13416   1.95459   1.94078   1.94078   1.95666   1.95666
    7 Ag   0.74777   0.14829   0.23329   0.10736   1.96152   1.94784   1.94947   1.96885   1.95783
    8 Ag   0.74778   0.15112   0.23047   0.10736   1.96152   1.95129   1.94603   1.97004   1.95664
    9 Ag   0.74778   0.15112   0.23047   0.10736   1.96152   1.95129   1.94603   1.97004   1.95664
   10 Ag   0.87908   0.04406   0.09087   0.04991   1.97266   1.97512   1.96040   1.98658   1.96795
   11 Ag   0.74781   0.14826   0.12018   0.22049   1.94903   1.96163   1.96683   1.95144   1.95658
   12 Ag   0.62307   0.24988   0.14708   0.23706   1.94491   1.95142   1.95331   1.94409   1.95575
   13 Ag   0.74781   0.14826   0.12018   0.22049   1.94903   1.96163   1.96683   1.95144   1.95658
   14 Ag   0.62310   0.17277   0.22417   0.23705   1.94491   1.95284   1.95189   1.95284   1.94701
   15 Ag   0.62310   0.17277   0.22417   0.23705   1.94491   1.95284   1.95189   1.95284   1.94701
   16 Ag   0.74785   0.10614   0.16231   0.22048   1.94903   1.96944   1.95903   1.95915   1.94887
   17 Ag   0.74784   0.15108   0.12114   0.21673   1.95203   1.96502   1.96727   1.94875   1.95244
   18 Ag   0.74784   0.15108   0.12114   0.21673   1.95203   1.96502   1.96727   1.94875   1.95244
   19 Ag   0.74787   0.10616   0.16606   0.21672   1.95204   1.96839   1.96390   1.95428   1.94690
   20 Ag   0.87903   0.04405   0.04405   0.09674   1.96881   1.98633   1.98633   1.96064   1.96064

 **********************
 *                    *
 * JOB ENDED NORMALLY *
 *                    *
 **********************



 TOTAL JOB TIME:            12.80 SECONDS

 == MOPAC DONE ==
