 *******************************************************************************
 **                                                                           **
 **                              MOPAC v22.0.6                                **
 **                                                                           **
 *******************************************************************************
 **          Digital Object Identifier (DOI): 10.5281/zenodo.6511958          **
 **    Visit the DOI location for information on how to cite this program.    **
 *******************************************************************************

                              INDO CALCULATION RESULTS

 *******************************************************************************
 *  CALCULATION DONE:                                Wed Jul 12 16:25:31 2023  *
 *  INDO       - The INDO Hamiltonian to be used
 *  CIS        - C.I. USES 1 ELECTRON EXCITATIONS ONLY
 *  T=         - A TIME OF 172800.0 SECONDS REQUESTED
 *  DUMP=N     - RESTART FILE WRITTEN EVERY 7200.0 SECONDS REQUESTED
 *******************************************************************************
INDO CIS
 benzene

   ATOM   CHEMICAL          X               Y               Z
  NUMBER   SYMBOL      (ANGSTROMS)     (ANGSTROMS)     (ANGSTROMS)

     1       H          0.00000000      2.48421200      0.00000000   
     2       H          0.00000000     -2.48421200      0.00000000   
     3       H          2.15139000      1.24210600      0.00000000   
     4       H         -2.15139000     -1.24210600      0.00000000   
     5       H         -2.15139000      1.24210600      0.00000000   
     6       H          2.15139000     -1.24210600      0.00000000   
     7       C          0.00000000      1.39679200      0.00000000   
     8       C          0.00000000     -1.39679200      0.00000000   
     9       C          1.20965700      0.69839600      0.00000000   
    10       C         -1.20965700     -0.69839600      0.00000000   
    11       C         -1.20965700      0.69839600      0.00000000   
    12       C          1.20965700     -0.69839600      0.00000000   



          CARTESIAN COORDINATES 

    NO.       ATOM           X           Y           Z

     1         H          0.0000      2.4842      0.0000
     2         H          0.0000     -2.4842      0.0000
     3         H          2.1514      1.2421      0.0000
     4         H         -2.1514     -1.2421      0.0000
     5         H         -2.1514      1.2421      0.0000
     6         H          2.1514     -1.2421      0.0000
     7         C          0.0000      1.3968      0.0000
     8         C          0.0000     -1.3968      0.0000
     9         C          1.2097      0.6984      0.0000
    10         C         -1.2097     -0.6984      0.0000
    11         C         -1.2097      0.6984      0.0000
    12         C          1.2097     -0.6984      0.0000

           Empirical Formula: C6 H6  =    12 atoms



      MOLECULAR POINT GROUP   :   D6h 


      RHF CALCULATION, NO. OF DOUBLY OCCUPIED LEVELS = 15

 WARNING: INDO only performs single-point calculations

 Summary of symmetry occupancy in each shell:

 SHELL     
    1   15
    v   15
 TOTAL  30


                     MOLECULAR ORBITALS 






    ROOT NO.    1           2           3           4           5           6

           -43.49916   -32.89489   -32.89489   -25.17512   -25.17511   -23.50149
  
  
  S  H   1   0.09899    -0.23686     0.00000    -0.00000     0.26513     0.24378
  
  S  H   2   0.09899     0.23686    -0.00000    -0.00000     0.26513     0.24378
  
  S  H   3   0.09899    -0.11843    -0.20513     0.22961    -0.13256     0.24378
  
  S  H   4   0.09899     0.11843     0.20513     0.22961    -0.13256     0.24378
  
  S  H   5   0.09899    -0.11843     0.20513    -0.22961    -0.13257     0.24378
  
  S  H   6   0.09899     0.11843    -0.20513    -0.22961    -0.13257     0.24378
  
  S  C   7   0.36472    -0.47754     0.00001    -0.00000     0.35184     0.06934
 PX  C   7   0.00000    -0.00000    -0.22170     0.34817     0.00000    -0.00000
 PY  C   7  -0.15442    -0.00605     0.00000    -0.00000     0.13426     0.32005
 PZ  C   7   0.00000     0.00000    -0.00000    -0.00000    -0.00000     0.00000
  
  S  C   8   0.36472     0.47754    -0.00001    -0.00000     0.35184     0.06934
 PX  C   8  -0.00000    -0.00000    -0.22170    -0.34817    -0.00000     0.00000
 PY  C   8   0.15442    -0.00605     0.00000     0.00000    -0.13426    -0.32005
 PZ  C   8  -0.00000    -0.00000     0.00000     0.00000    -0.00000     0.00000
  
  S  C   9   0.36472    -0.23877    -0.41356     0.30470    -0.17592     0.06934
 PX  C   9  -0.13373     0.09338    -0.05996     0.01365    -0.20890     0.27717
 PY  C   9  -0.07721    -0.16779     0.09338     0.20890     0.22756     0.16002
 PZ  C   9   0.00000    -0.00000    -0.00000    -0.00000    -0.00000     0.00000
  
  S  C  10   0.36472     0.23877     0.41356     0.30470    -0.17592     0.06934
 PX  C  10   0.13373     0.09338    -0.05996    -0.01365     0.20890    -0.27717
 PY  C  10   0.07721    -0.16779     0.09338    -0.20890    -0.22756    -0.16002
 PZ  C  10  -0.00000    -0.00000     0.00000     0.00000     0.00000     0.00000
  
  S  C  11   0.36472    -0.23876     0.41356    -0.30470    -0.17592     0.06934
 PX  C  11   0.13373    -0.09338    -0.05996     0.01365     0.20890    -0.27717
 PY  C  11  -0.07721    -0.16779    -0.09338    -0.20890     0.22756     0.16002
 PZ  C  11  -0.00000    -0.00000    -0.00000     0.00000    -0.00000     0.00000
  
  S  C  12   0.36472     0.23876    -0.41356    -0.30470    -0.17592     0.06934
 PX  C  12  -0.13373    -0.09338    -0.05996    -0.01365    -0.20890     0.27717
 PY  C  12   0.07721    -0.16779    -0.09338     0.20890    -0.22756    -0.16002
 PZ  C  12   0.00000    -0.00000    -0.00000     0.00000    -0.00000     0.00000




    ROOT NO.    7           8           9          10          11          12

           -17.37600   -17.36224   -15.23978   -15.23977   -13.36439   -12.44201
  
  
  S  H   1  -0.28030    -0.00000     0.33662     0.00000     0.00000    -0.31887
  
  S  H   2   0.28030     0.00000    -0.33662    -0.00000    -0.00000    -0.31887
  
  S  H   3   0.28030     0.00000     0.16831    -0.29152     0.00000     0.15944
  
  S  H   4  -0.28030    -0.00000    -0.16831     0.29152    -0.00000     0.15944
  
  S  H   5   0.28030    -0.00000     0.16831     0.29153    -0.00000     0.15944
  
  S  H   6  -0.28030     0.00000    -0.16831    -0.29153    -0.00000     0.15944
  
  S  C   7  -0.20480    -0.00000    -0.09241    -0.00000    -0.00000     0.00165
 PX  C   7  -0.00000     0.40825    -0.00000     0.17225    -0.00000     0.00000
 PY  C   7  -0.21483    -0.00000     0.42639     0.00000     0.00000    -0.31602
 PZ  C   7  -0.00000    -0.00000    -0.00000    -0.00000     0.40825     0.00000
  
  S  C   8   0.20480     0.00000     0.09241     0.00000     0.00000     0.00165
 PX  C   8  -0.00000     0.40825    -0.00000     0.17225     0.00000    -0.00000
 PY  C   8  -0.21483    -0.00000     0.42639     0.00000     0.00000     0.31602
 PZ  C   8   0.00000    -0.00000    -0.00000     0.00000     0.40825    -0.00000
  
  S  C   9   0.20480    -0.00000    -0.04620     0.08003     0.00000    -0.00083
 PX  C   9   0.18605    -0.20412     0.25922    -0.27673     0.00000    -0.02035
 PY  C   9   0.10742     0.35355    -0.02258    -0.25922     0.00000     0.35127
 PZ  C   9  -0.00000    -0.00000    -0.00000     0.00000     0.40825     0.00000
  
  S  C  10  -0.20480     0.00000     0.04620    -0.08003    -0.00000    -0.00083
 PX  C  10   0.18605    -0.20412     0.25922    -0.27673    -0.00000     0.02035
 PY  C  10   0.10742     0.35355    -0.02258    -0.25922     0.00000    -0.35127
 PZ  C  10  -0.00000    -0.00000    -0.00000    -0.00000     0.40825     0.00000
  
  S  C  11   0.20480     0.00000    -0.04620    -0.08003    -0.00000    -0.00083
 PX  C  11  -0.18605    -0.20412    -0.25922    -0.27673    -0.00000     0.02035
 PY  C  11   0.10742    -0.35355    -0.02259     0.25922    -0.00000     0.35127
 PZ  C  11  -0.00000    -0.00000    -0.00000    -0.00000     0.40825     0.00000
  
  S  C  12  -0.20480    -0.00000     0.04620     0.08003    -0.00000    -0.00083
 PX  C  12  -0.18605    -0.20412    -0.25922    -0.27673    -0.00000    -0.02035
 PY  C  12   0.10742    -0.35355    -0.02259     0.25922    -0.00000    -0.35127
 PZ  C  12  -0.00000    -0.00000    -0.00000     0.00000     0.40825    -0.00000




    ROOT NO.   13          14          15          16          17          18

           -12.44201    -8.96711    -8.96711     0.84156     0.84156     3.18071
  
  
  S  H   1  -0.00000    -0.00000     0.00000    -0.00000     0.00000    -0.21108
  
  S  H   2  -0.00000    -0.00000     0.00000    -0.00000    -0.00000     0.21108
  
  S  H   3   0.27615     0.00000    -0.00000     0.00000    -0.00000     0.21108
  
  S  H   4   0.27615     0.00000     0.00000     0.00000     0.00000    -0.21108
  
  S  H   5  -0.27615     0.00000    -0.00000     0.00000    -0.00000     0.21108
  
  S  H   6  -0.27615     0.00000    -0.00000     0.00000     0.00000    -0.21108
  
  S  C   7   0.00000     0.00000    -0.00000     0.00000    -0.00000     0.34529
 PX  C   7  -0.36302     0.00000    -0.00000     0.00000    -0.00000     0.00000
 PY  C   7  -0.00000    -0.00000     0.00000    -0.00000     0.00000    -0.05375
 PZ  C   7  -0.00000    -0.57735     0.00003    -0.00005     0.57735     0.00000
  
  S  C   8   0.00000    -0.00000     0.00000     0.00000     0.00000    -0.34529
 PX  C   8   0.36302    -0.00000     0.00000     0.00000     0.00000     0.00000
 PY  C   8   0.00000     0.00000     0.00000     0.00000     0.00000    -0.05375
 PZ  C   8  -0.00000     0.57735    -0.00003    -0.00005     0.57735     0.00000
  
  S  C   9  -0.00143    -0.00000     0.00000     0.00000     0.00000    -0.34529
 PX  C   9   0.32777     0.00000     0.00000    -0.00000     0.00000     0.04655
 PY  C   9  -0.02035     0.00000    -0.00000    -0.00000    -0.00000     0.02688
 PZ  C   9  -0.00000    -0.28870    -0.49999     0.50002    -0.28864     0.00000
  
  S  C  10  -0.00143     0.00000    -0.00000    -0.00000     0.00000     0.34529
 PX  C  10  -0.32777     0.00000    -0.00000    -0.00000    -0.00000     0.04655
 PY  C  10   0.02035    -0.00000     0.00000     0.00000     0.00000     0.02688
 PZ  C  10  -0.00000     0.28870     0.49999     0.50002    -0.28864    -0.00000
  
  S  C  11   0.00143    -0.00000    -0.00000    -0.00000    -0.00000    -0.34529
 PX  C  11   0.32777     0.00000     0.00000    -0.00000     0.00000    -0.04655
 PY  C  11   0.02035     0.00000     0.00000    -0.00000     0.00000     0.02688
 PZ  C  11  -0.00000    -0.28865     0.50001    -0.49998    -0.28871    -0.00000
  
  S  C  12   0.00143    -0.00000     0.00000    -0.00000    -0.00000     0.34529
 PX  C  12  -0.32777     0.00000    -0.00000     0.00000     0.00000    -0.04655
 PY  C  12  -0.02035    -0.00000     0.00000    -0.00000    -0.00000     0.02688
 PZ  C  12  -0.00000     0.28865    -0.50001    -0.49998    -0.28871    -0.00000




    ROOT NO.   19          20          21          22          23          24

             3.18991     4.06350     4.06350     5.24506     5.89014     5.89014
  
  
  S  H   1   0.00000     0.00001    -0.28567     0.31215    -0.36831    -0.00000
  
  S  H   2  -0.00000     0.00001    -0.28567     0.31215     0.36831     0.00000
  
  S  H   3  -0.00000    -0.24740     0.14282     0.31215    -0.18416     0.31896
  
  S  H   4   0.00000    -0.24740     0.14282     0.31215     0.18416    -0.31896
  
  S  H   5  -0.00000     0.24739     0.14284     0.31215    -0.18415    -0.31897
  
  S  H   6   0.00000     0.24739     0.14284     0.31215     0.18415     0.31897
  
  S  C   7  -0.00000    -0.00002     0.44209    -0.16981     0.28229     0.00000
 PX  C   7  -0.00000    -0.23650    -0.00001    -0.00000    -0.00000     0.22170
 PY  C   7   0.00000    -0.00000     0.01889    -0.20098     0.26239     0.00000
 PZ  C   7  -0.40825    -0.00000    -0.00000     0.00000    -0.00000    -0.00000
  
  S  C   8   0.00000    -0.00002     0.44209    -0.16981    -0.28229    -0.00000
 PX  C   8  -0.00000     0.23650     0.00001     0.00000    -0.00000     0.22170
 PY  C   8  -0.00000     0.00000    -0.01889     0.20098     0.26239     0.00000
 PZ  C   8   0.40825    -0.00000     0.00000     0.00000     0.00000     0.00000
  
  S  C   9   0.00000     0.38287    -0.22102    -0.16981     0.14115    -0.24447
 PX  C   9  -0.00000     0.07328     0.09423    -0.17405     0.20962    -0.14136
 PY  C   9   0.00000    -0.09422    -0.18210    -0.10049    -0.10067    -0.20962
 PZ  C   9   0.40825    -0.00000    -0.00000    -0.00000    -0.00000    -0.00000
  
  S  C  10  -0.00000     0.38287    -0.22102    -0.16981    -0.14115     0.24447
 PX  C  10  -0.00000    -0.07328    -0.09423     0.17405     0.20962    -0.14136
 PY  C  10   0.00000     0.09422     0.18210     0.10049    -0.10067    -0.20962
 PZ  C  10  -0.40825    -0.00000    -0.00000    -0.00000    -0.00000    -0.00000
  
  S  C  11   0.00000    -0.38285    -0.22106    -0.16981     0.14114     0.24447
 PX  C  11   0.00000     0.07329    -0.09423     0.17405    -0.20961    -0.14137
 PY  C  11   0.00000     0.09424    -0.18209    -0.10049    -0.10068     0.20961
 PZ  C  11   0.40825     0.00000     0.00000     0.00000     0.00000     0.00000
  
  S  C  12  -0.00000    -0.38285    -0.22106    -0.16981    -0.14114    -0.24447
 PX  C  12  -0.00000    -0.07329     0.09423    -0.17405    -0.20961    -0.14137
 PY  C  12  -0.00000    -0.09424     0.18209     0.10049    -0.10068     0.20961
 PZ  C  12  -0.40825     0.00000     0.00000    -0.00000    -0.00000    -0.00000




    ROOT NO.   25          26          27          28          29          30

             8.46958     9.14843     9.14843    11.76953    11.76953    12.63954
  
  
  S  H   1  -0.20867     0.28241    -0.00003     0.00003    -0.16811     0.00000
  
  S  H   2   0.20867     0.28241    -0.00003    -0.00003     0.16811     0.00000
  
  S  H   3   0.20867    -0.14123    -0.24456    -0.14557    -0.08408     0.00000
  
  S  H   4  -0.20867    -0.14123    -0.24456     0.14557     0.08408     0.00000
  
  S  H   5   0.20867    -0.14118     0.24459     0.14561    -0.08403    -0.00000
  
  S  H   6  -0.20867    -0.14118     0.24459    -0.14561     0.08403    -0.00000
  
  S  C   7  -0.07417     0.11874    -0.00001     0.00002    -0.13065     0.00000
 PX  C   7  -0.00000     0.00001     0.15620     0.45317     0.00008    -0.40825
 PY  C   7   0.34296    -0.46377     0.00004    -0.00005     0.28747    -0.00000
 PZ  C   7  -0.00000    -0.00000     0.00000    -0.00000    -0.00000     0.00000
  
  S  C   8   0.07417     0.11874    -0.00001    -0.00002     0.13065     0.00000
 PX  C   8  -0.00000    -0.00001    -0.15620     0.45317     0.00008     0.40825
 PY  C   8   0.34296     0.46377    -0.00004    -0.00005     0.28747     0.00000
 PZ  C   8   0.00000     0.00000     0.00000    -0.00000    -0.00000     0.00000
  
  S  C   9   0.07417    -0.05938    -0.10282    -0.11313    -0.06534     0.00000
 PX  C   9  -0.29702     0.26848     0.30875     0.32891    -0.07169    -0.20412
 PY  C   9  -0.17148    -0.00119     0.26846    -0.07183     0.41173     0.35355
 PZ  C   9  -0.00000    -0.00000     0.00000     0.00000     0.00000     0.00000
  
  S  C  10  -0.07417    -0.05938    -0.10282     0.11313     0.06534     0.00000
 PX  C  10  -0.29702    -0.26848    -0.30875     0.32891    -0.07169     0.20412
 PY  C  10  -0.17148     0.00119    -0.26846    -0.07183     0.41173    -0.35355
 PZ  C  10  -0.00000    -0.00000     0.00000    -0.00000     0.00000    -0.00000
  
  S  C  11   0.07417    -0.05936     0.10283     0.11315    -0.06530    -0.00000
 PX  C  11   0.29702    -0.26843     0.30880     0.32888     0.07181    -0.20412
 PY  C  11  -0.17148    -0.00124    -0.26846     0.07168     0.41176    -0.35355
 PZ  C  11   0.00000     0.00000    -0.00000     0.00000    -0.00000     0.00000
  
  S  C  12  -0.07417    -0.05936     0.10283    -0.11315     0.06530    -0.00000
 PX  C  12   0.29702     0.26843    -0.30880     0.32888     0.07181     0.20412
 PY  C  12  -0.17148     0.00124     0.26846     0.07168     0.41176     0.35355
 PZ  C  12   0.00000     0.00000    -0.00000     0.00000    -0.00000    -0.00000


 Reference determinate nber   1 is ALPHA 1 -  15
 SINGLE excitations FROM orbs   1 to  15 INTO orbs  16 to  30


 CI excitations=  226:        =226
 The lowest  226 spin-adapted configurations of multiplicity=  1
     sym   eV   cm**-1 -dets- dipole oscilator X FRAG ....Excitations named from first reference determinate
                       tot  #  Debye  strength

   1      0.000      0.  1  1  0.0000 0.000000 0  0 (    )->(       )
   2      5.802  46796.  1  1  0.0000 0.495181 1  1 (  15)->(  17   )
   3      5.802  46796.  1  1  0.0000 0.495181 1  1 (  14)->(  16   )
   4      6.483  52293.  1  1  0.0000 0.553346 1  1 (  15)->(  16   )
   5      6.483  52293.  1  1  0.0000 0.553346 1  1 (  14)->(  17   )
   6      7.173  57852.  1  1  0.0000 0.000000 1  1 (  15)->(  18   )
   7      7.173  57852.  1  1  0.0000 0.000000 1  1 (  14)->(  18   )
   8      7.960  64198.  1  1  0.0000 0.000000 1  1 (  15)->(  20   )
   9      7.960  64198.  1  1  0.0000 0.000000 1  1 (  14)->(  21   )
  10      7.961  64214.  1  1  0.0000 0.000000 1  1 (  15)->(  21   )
  11      7.961  64214.  1  1  0.0000 0.000000 1  1 (  14)->(  20   )
  12      7.962  64215.  1  1  0.0000 0.000003 1  1 (  13)->(  16   )
  13      7.962  64215.  1  1  0.0000 0.000003 1  1 (  12)->(  17   )
  14      7.991  64449.  1  1  0.0000 0.000000 1  1 (  15)->(  19   )
  15      7.991  64449.  1  1  0.0000 0.000000 1  1 (  14)->(  19   )
  16      7.994  64474.  1  1  0.0000 0.000000 1  1 (  13)->(  17   )
  17      7.994  64474.  1  1  0.0000 0.000000 1  1 (  12)->(  16   )
  18      9.334  75287.  1  1  0.0000 0.000000 1  1 (  15)->(  22   )
  19      9.334  75287.  1  1  0.0000 0.000000 1  1 (  14)->(  22   )
  20      9.719  78392.  1  1  0.0000 0.089822 1  1 (  15)->(  24   )
  21      9.719  78392.  1  1  0.0000 0.089822 1  1 (  14)->(  23   )
  22      9.881  79693.  1  1  0.0000 0.000000 1  1 (  15)->(  23   )
  23      9.881  79693.  1  1  0.0000 0.000000 1  1 (  14)->(  24   )
  24     10.040  80975.  1  1  0.0000 0.000000 1  1 (  11)->(  16   )
  25     10.040  80975.  1  1  0.0000 0.000000 1  1 (  11)->(  17   )
  26     10.326  83286.  1  1  0.0000 0.000000 1  1 (  13)->(  19   )
  27     10.326  83286.  1  1  0.0000 0.000000 1  1 (  12)->(  19   )
  28     10.651  85908.  1  1  0.0000 0.000000 1  1 (  10)->(  16   )
  29     10.651  85908.  1  1  0.0000 0.000000 1  1 (   9)->(  17   )
  30     11.011  88809.  1  1  0.0000 0.000000 1  1 (  10)->(  17   )
  31     11.011  88809.  1  1  0.0000 0.000000 1  1 (   9)->(  16   )
  32     11.147  89907.  1  1  0.0000 0.116558 1  1 (  13)->(  18   )
  33     11.147  89907.  1  1  0.0000 0.116558 1  1 (  12)->(  18   )
  34     11.570  93318.  1  1  0.0000 0.000000 1  1 (  11)->(  18   )
  35     11.820  95334.  1  1  0.0000 0.000000 1  1 (  13)->(  21   )
  36     11.820  95334.  1  1  0.0000 0.000000 1  1 (  12)->(  20   )
  37     11.988  96693.  1  1  0.0000 0.000000 1  1 (  13)->(  20   )
  38     11.988  96693.  1  1  0.0000 0.000000 1  1 (  12)->(  21   )
  39     12.095  97556.  1  1  0.0000 0.000000 1  1 (  15)->(  25   )
  40     12.095  97556.  1  1  0.0000 0.000000 1  1 (  14)->(  25   )
  41     12.135  97879.  1  1  0.0000 0.000000 1  1 (  11)->(  19   )
  42     12.358  99672.  1  1  0.0000 0.000000 1  1 (  11)->(  20   )
  43     12.358  99672.  1  1  0.0000 0.000000 1  1 (  11)->(  21   )
  44     12.530 101063.  1  1  0.0000 0.000000 1  1 (   8)->(  16   )
  45     12.530 101063.  1  1  0.0000 0.000000 1  1 (   8)->(  17   )
  46     12.554 101252.  1  1  0.0000 0.000000 1  1 (  15)->(  27   )
  47     12.554 101252.  1  1  0.0000 0.000000 1  1 (  14)->(  26   )
  48     12.952 104463.  1  1  0.0000 0.000000 1  1 (  15)->(  26   )
  49     12.952 104463.  1  1  0.0000 0.000000 1  1 (  14)->(  27   )
  50     13.179 106299.  1  1  0.0000 0.000000 1  1 (  10)->(  19   )
  51     13.179 106299.  1  1  0.0000 0.000000 1  1 (   9)->(  19   )
  52     13.245 106826.  1  1  0.0000 0.000000 1  1 (   7)->(  16   )
  53     13.245 106826.  1  1  0.0000 0.000000 1  1 (   7)->(  17   )
  54     13.273 107056.  1  1  0.0000 0.000000 1  1 (  13)->(  22   )
  55     13.273 107056.  1  1  0.0000 0.000000 1  1 (  12)->(  22   )
  56     13.732 110754.  1  1  0.0000 0.091846 1  1 (  11)->(  22   )
  57     13.754 110933.  1  1  0.0000 0.027129 1  1 (  13)->(  23   )
  58     13.754 110933.  1  1  0.0000 0.027129 1  1 (  12)->(  24   )
  59     13.874 111904.  1  1  0.0000 0.027367 1  1 (  13)->(  24   )
  60     13.874 111904.  1  1  0.0000 0.027367 1  1 (  12)->(  23   )
  61     13.954 112548.  1  1  0.0000 0.000000 1  1 (  10)->(  18   )
  62     13.954 112548.  1  1  0.0000 0.000000 1  1 (   9)->(  18   )
  63     14.197 114509.  1  1  0.0000 0.000000 1  1 (  11)->(  23   )
  64     14.197 114509.  1  1  0.0000 0.000000 1  1 (  11)->(  24   )
  65     14.606 117809.  1  1  0.0000 0.050761 1  1 (  10)->(  21   )
  66     14.606 117809.  1  1  0.0000 0.050761 1  1 (   9)->(  20   )
  67     14.753 118989.  1  1  0.0000 0.051270 1  1 (  10)->(  20   )
  68     14.753 118989.  1  1  0.0000 0.051270 1  1 (   9)->(  21   )
  69     14.879 120004.  1  1  0.0000 0.000000 1  1 (   8)->(  19   )
  70     15.100 121790.  1  1  0.0000 0.000000 1  1 (  15)->(  29   )
  71     15.100 121790.  1  1  0.0000 0.000000 1  1 (  14)->(  28   )
  72     15.284 123277.  1  1  0.0000 0.030255 1  1 (  15)->(  28   )
  73     15.284 123277.  1  1  0.0000 0.030255 1  1 (  14)->(  29   )
  74     15.568 125563.  1  1  0.0000 0.000000 1  1 (   8)->(  18   )
  75     15.593 125766.  1  1  0.0000 0.151699 1  1 (   7)->(  19   )
  76     15.933 128509.  1  1  0.0000 0.000000 1  1 (  15)->(  30   )
  77     15.933 128509.  1  1  0.0000 0.000000 1  1 (  14)->(  30   )
  78     16.131 130108.  1  1  0.0000 0.000000 1  1 (   7)->(  18   )
  79     16.195 130623.  1  1  0.0000 0.586920 1  1 (  10)->(  22   )
  80     16.195 130623.  1  1  0.0000 0.586919 1  1 (   9)->(  22   )
  81     16.259 131140.  1  1  0.0000 0.036336 1  1 (  13)->(  25   )
  82     16.259 131140.  1  1  0.0000 0.036336 1  1 (  12)->(  25   )
  83     16.493 133023.  1  1  0.0000 0.000000 1  1 (  11)->(  25   )
  84     16.498 133069.  1  1  0.0000 0.000000 1  1 (  10)->(  23   )
  85     16.498 133069.  1  1  0.0000 0.000000 1  1 (   9)->(  24   )
  86     16.760 135177.  1  1  0.0000 0.000000 1  1 (  10)->(  24   )
  87     16.760 135177.  1  1  0.0000 0.000000 1  1 (   9)->(  23   )
  88     16.793 135449.  1  1  0.0000 0.000000 1  1 (  13)->(  26   )
  89     16.793 135449.  1  1  0.0000 0.000000 1  1 (  12)->(  27   )
  90     16.819 135653.  1  1  0.0000 0.066292 1  1 (   8)->(  20   )
  91     16.819 135653.  1  1  0.0000 0.066292 1  1 (   8)->(  21   )
  92     16.958 136774.  1  1  0.0000 0.000159 1  1 (   7)->(  20   )
  93     16.958 136774.  1  1  0.0000 0.000159 1  1 (   7)->(  21   )
  94     16.978 136941.  1  1  0.0000 0.000000 1  1 (  13)->(  27   )
  95     16.978 136941.  1  1  0.0000 0.000000 1  1 (  12)->(  26   )
  96     17.150 138324.  1  1  0.0000 0.000000 1  1 (  11)->(  26   )
  97     17.150 138324.  1  1  0.0000 0.000000 1  1 (  11)->(  27   )
  98     17.730 142999.  1  1  0.0000 0.000000 1  1 (   8)->(  22   )
  99     18.417 148546.  1  1  0.0000 0.000000 1  1 (   8)->(  23   )
 100     18.417 148546.  1  1  0.0000 0.000000 1  1 (   8)->(  24   )
 101     18.528 149435.  1  1  0.0000 0.000000 1  1 (   7)->(  22   )
 102     19.008 153306.  1  1  0.0000 0.000000 1  1 (   7)->(  23   )
 103     19.008 153306.  1  1  0.0000 0.000000 1  1 (   7)->(  24   )
 104     19.115 154169.  1  1  0.0000 0.000000 1  1 (   6)->(  16   )
 105     19.115 154169.  1  1  0.0000 0.000000 1  1 (   6)->(  17   )
 106     19.165 154574.  1  1  0.0000 0.408718 1  1 (  13)->(  29   )
 107     19.165 154574.  1  1  0.0000 0.408718 1  1 (  12)->(  28   )
 108     19.273 155444.  1  1  0.0000 0.000000 1  1 (  10)->(  25   )
 109     19.273 155444.  1  1  0.0000 0.000000 1  1 (   9)->(  25   )
 110     19.589 158000.  1  1  0.0000 0.000000 1  1 (  11)->(  28   )
 111     19.589 158000.  1  1  0.0000 0.000000 1  1 (  11)->(  29   )
 112     19.781 159548.  1  1  0.0000 0.014097 1  1 (  10)->(  26   )
 113     19.781 159548.  1  1  0.0000 0.014097 1  1 (   9)->(  27   )
 114     19.848 160088.  1  1  0.0000 0.423300 1  1 (  13)->(  28   )
 115     19.848 160088.  1  1  0.0000 0.423300 1  1 (  12)->(  29   )
 116     20.106 162169.  1  1  0.0000 0.014329 1  1 (  10)->(  27   )
 117     20.106 162169.  1  1  0.0000 0.014329 1  1 (   9)->(  26   )
 118     20.330 163976.  1  1  0.0000 0.000000 1  1 (  11)->(  30   )
 119     20.372 164308.  1  1  0.0000 0.000000 1  1 (  13)->(  30   )
 120     20.372 164308.  1  1  0.0000 0.000000 1  1 (  12)->(  30   )
 121     20.491 165268.  1  1  0.0000 0.000000 1  1 (   8)->(  25   )
 122     20.743 167302.  1  1  0.0000 0.000000 1  1 (   5)->(  16   )
 123     20.743 167302.  1  1  0.0000 0.000000 1  1 (   4)->(  17   )
 124     20.842 168106.  1  1  0.0000 0.299228 1  1 (   5)->(  17   )
 125     20.842 168106.  1  1  0.0000 0.299228 1  1 (   4)->(  16   )
 126     21.350 172198.  1  1  0.0000 0.147743 1  1 (   8)->(  26   )
 127     21.350 172198.  1  1  0.0000 0.147743 1  1 (   8)->(  27   )
 128     21.416 172735.  1  1  0.0000 0.000000 1  1 (   7)->(  25   )
 129     21.463 173110.  1  1  0.0000 0.000000 1  1 (   6)->(  19   )
 130     21.959 177114.  1  1  0.0000 0.188529 1  1 (   7)->(  26   )
 131     21.959 177114.  1  1  0.0000 0.188529 1  1 (   7)->(  27   )
 132     22.031 177690.  1  1  0.0000 0.000000 1  1 (   6)->(  18   )
 133     22.071 178017.  1  1  0.0000 0.000000 1  1 (  10)->(  29   )
 134     22.071 178017.  1  1  0.0000 0.000000 1  1 (   9)->(  28   )
 135     22.265 179583.  1  1  0.0000 0.000000 1  1 (  10)->(  28   )
 136     22.265 179583.  1  1  0.0000 0.000000 1  1 (   9)->(  29   )
 137     22.862 184397.  1  1  0.0000 0.000000 1  1 (   6)->(  20   )
 138     22.862 184397.  1  1  0.0000 0.000000 1  1 (   6)->(  21   )
 139     22.875 184498.  1  1  0.0000 0.233380 1  1 (  10)->(  30   )
 140     22.875 184498.  1  1  0.0000 0.233380 1  1 (   9)->(  30   )
 141     23.141 186645.  1  1  0.0000 0.000000 1  1 (   5)->(  19   )
 142     23.141 186645.  1  1  0.0000 0.000000 1  1 (   4)->(  19   )
 143     23.775 191759.  1  1  0.0000 0.019844 1  1 (   5)->(  18   )
 144     23.775 191759.  1  1  0.0000 0.019844 1  1 (   4)->(  18   )
 145     24.287 195892.  1  1  0.0000 0.000000 1  1 (   7)->(  28   )
 146     24.287 195892.  1  1  0.0000 0.000000 1  1 (   7)->(  29   )
 147     24.516 197735.  1  1  0.0000 0.000000 1  1 (   8)->(  28   )
 148     24.516 197735.  1  1  0.0000 0.000000 1  1 (   8)->(  29   )
 149     24.586 198299.  1  1  0.0000 0.000000 1  1 (   5)->(  21   )
 150     24.586 198299.  1  1  0.0000 0.000000 1  1 (   4)->(  20   )
 151     24.670 198974.  1  1  0.0000 0.000000 1  1 (   5)->(  20   )
 152     24.670 198975.  1  1  0.0000 0.000000 1  1 (   4)->(  21   )
 153     24.736 199511.  1  1  0.0000 0.000000 1  1 (   6)->(  22   )
 154     25.012 201736.  1  1  0.0000 0.047211 1  1 (   6)->(  23   )
 155     25.012 201736.  1  1  0.0000 0.047211 1  1 (   6)->(  24   )
 156     25.043 201983.  1  1  0.0000 0.000000 1  1 (   7)->(  30   )
 157     25.583 206341.  1  1  0.0000 0.000000 1  1 (   8)->(  30   )
 158     25.947 209278.  1  1  0.0000 0.000000 1  1 (   5)->(  22   )
 159     25.947 209278.  1  1  0.0000 0.000000 1  1 (   4)->(  22   )
 160     26.303 212147.  1  1  0.0000 0.003504 1  1 (   5)->(  24   )
 161     26.303 212148.  1  1  0.0000 0.003504 1  1 (   4)->(  23   )
 162     26.713 215456.  1  1  0.0000 0.003559 1  1 (   5)->(  23   )
 163     26.713 215456.  1  1  0.0000 0.003559 1  1 (   4)->(  24   )
 164     27.462 221493.  1  1  0.0000 0.000000 1  1 (   6)->(  25   )
 165     28.118 226789.  1  1  0.0000 0.000000 1  1 (   6)->(  26   )
 166     28.118 226789.  1  1  0.0000 0.000000 1  1 (   6)->(  27   )
 167     28.623 230865.  1  1  0.0000 0.000000 1  1 (   3)->(  17   )
 168     28.623 230865.  1  1  0.0000 0.000000 1  1 (   2)->(  16   )
 169     28.628 230898.  1  1  0.0000 0.000000 1  1 (   3)->(  16   )
 170     28.628 230898.  1  1  0.0000 0.000000 1  1 (   2)->(  17   )
 171     28.745 231841.  1  1  0.0000 0.093271 1  1 (   5)->(  25   )
 172     28.745 231841.  1  1  0.0000 0.093271 1  1 (   4)->(  25   )
 173     29.348 236709.  1  1  0.0000 0.000000 1  1 (   5)->(  27   )
 174     29.348 236709.  1  1  0.0000 0.000000 1  1 (   4)->(  26   )
 175     29.516 238063.  1  1  0.0000 0.000000 1  1 (   5)->(  26   )
 176     29.516 238063.  1  1  0.0000 0.000000 1  1 (   4)->(  27   )
 177     30.361 244878.  1  1  0.0000 0.016422 1  1 (   6)->(  29   )
 178     30.361 244878.  1  1  0.0000 0.016422 1  1 (   6)->(  28   )
 179     30.912 249327.  1  1  0.0000 0.000000 1  1 (   6)->(  30   )
 180     30.974 249822.  1  1  0.0000 0.000000 1  1 (   3)->(  19   )
 181     30.974 249822.  1  1  0.0000 0.000000 1  1 (   2)->(  19   )
 182     31.532 254325.  1  1  0.0000 0.000000 1  1 (   3)->(  18   )
 183     31.532 254325.  1  1  0.0000 0.000000 1  1 (   2)->(  18   )
 184     32.020 258256.  1  1  0.0000 0.022596 1  1 (   5)->(  28   )
 185     32.020 258256.  1  1  0.0000 0.022596 1  1 (   4)->(  29   )
 186     32.187 259609.  1  1  0.0000 0.020219 1  1 (   3)->(  21   )
 187     32.187 259609.  1  1  0.0000 0.020219 1  1 (   2)->(  20   )
 188     32.354 260952.  1  1  0.0000 0.022832 1  1 (   5)->(  29   )
 189     32.354 260952.  1  1  0.0000 0.022832 1  1 (   4)->(  28   )
 190     32.581 262782.  1  1  0.0000 0.020466 1  1 (   3)->(  20   )
 191     32.581 262782.  1  1  0.0000 0.020466 1  1 (   2)->(  21   )
 192     33.139 267283.  1  1  0.0000 0.000000 1  1 (   5)->(  30   )
 193     33.139 267283.  1  1  0.0000 0.000000 1  1 (   4)->(  30   )
 194     33.642 271341.  1  1  0.0000 0.001556 1  1 (   3)->(  22   )
 195     33.642 271341.  1  1  0.0000 0.001556 1  1 (   2)->(  22   )
 196     34.180 275684.  1  1  0.0000 0.000000 1  1 (   3)->(  24   )
 197     34.180 275684.  1  1  0.0000 0.000000 1  1 (   2)->(  23   )
 198     34.192 275774.  1  1  0.0000 0.000000 1  1 (   3)->(  23   )
 199     34.192 275774.  1  1  0.0000 0.000000 1  1 (   2)->(  24   )
 200     36.562 294892.  1  1  0.0000 0.000000 1  1 (   3)->(  25   )
 201     36.562 294892.  1  1  0.0000 0.000000 1  1 (   2)->(  25   )
 202     37.198 300023.  1  1  0.0000 0.025700 1  1 (   3)->(  26   )
 203     37.198 300023.  1  1  0.0000 0.025700 1  1 (   2)->(  27   )
 204     37.317 300981.  1  1  0.0000 0.025783 1  1 (   3)->(  27   )
 205     37.317 300981.  1  1  0.0000 0.025783 1  1 (   2)->(  26   )
 206     39.158 315829.  1  1  0.0000 0.000000 1  1 (   1)->(  16   )
 207     39.158 315829.  1  1  0.0000 0.000000 1  1 (   1)->(  17   )
 208     39.829 321245.  1  1  0.0000 0.000000 1  1 (   3)->(  28   )
 209     39.829 321245.  1  1  0.0000 0.000000 1  1 (   2)->(  29   )
 210     39.845 321370.  1  1  0.0000 0.000000 1  1 (   3)->(  29   )
 211     39.845 321370.  1  1  0.0000 0.000000 1  1 (   2)->(  28   )
 212     40.831 329322.  1  1  0.0000 0.077819 1  1 (   3)->(  30   )
 213     40.831 329322.  1  1  0.0000 0.077819 1  1 (   2)->(  30   )
 214     41.506 334770.  1  1  0.0000 0.000000 1  1 (   1)->(  19   )
 215     42.148 339951.  1  1  0.0000 0.000000 1  1 (   1)->(  18   )
 216     42.912 346106.  1  1  0.0000 0.000000 1  1 (   1)->(  20   )
 217     42.912 346106.  1  1  0.0000 0.000000 1  1 (   1)->(  21   )
 218     44.004 354918.  1  1  0.0000 0.000000 1  1 (   1)->(  22   )
 219     44.513 359019.  1  1  0.0000 0.019955 1  1 (   1)->(  23   )
 220     44.513 359019.  1  1  0.0000 0.019955 1  1 (   1)->(  24   )
 221     47.331 381748.  1  1  0.0000 0.000000 1  1 (   1)->(  25   )
 222     48.083 387817.  1  1  0.0000 0.000000 1  1 (   1)->(  26   )
 223     48.083 387817.  1  1  0.0000 0.000000 1  1 (   1)->(  27   )
 224     50.658 408589.  1  1  0.0000 0.089271 1  1 (   1)->(  29   )
 225     50.658 408589.  1  1  0.0000 0.089271 1  1 (   1)->(  28   )
 226     50.956 410987.  1  1  0.0000 0.000000 1  1 (   1)->(  30   )

 Depression of ground-state after CI=          0. cm**-1 Energy= -2890.0037887 eV
 Dipole moment= -0.000000 -0.000000  0.000000 tot=  0.000000 Debyes


  CI trans.  energy frequency wavelength oscillator--------- polarization---------  dipole  ------ components-----
 st.  symm.    eV      cm - 1       nm      strength       x          y         z       moment     x       y       z 

   2      4.7082902    37975.    263.33  0.000000                                   0.000000  -0.000  -0.000   0.000
   3      5.3612296    43241.    231.26  0.000000                                   0.000000  -0.000  -0.000   0.000
   4      6.2210609    50176.    199.30  0.872354   0.000047  -1.000000   0.000000  0.000000  -0.000  -0.000   0.000
   5      6.2210611    50176.    199.30  0.872354  -1.000000  -0.000047   0.000000  0.000000  -0.000  -0.000   0.000
   6      7.0616092    56956.    175.57  0.000000                                   0.000000  -0.000  -0.000  -0.000
   7      7.0616118    56956.    175.57  0.000000                                   0.000000  -0.000  -0.000  -0.000
   8      7.5043745    60527.    165.22  0.000000                                   0.000000   0.000   0.000   0.000
   9      7.5043772    60527.    165.22  0.000000                                   0.000000   0.000  -0.000   0.000
  10      7.7173849    62245.    160.66  0.000000                                   0.000000  -0.000  -0.000  -0.000
  11      7.7716795    62683.    159.53  0.000000                                   0.000000   0.000  -0.000   0.000
  12      7.7716796    62683.    159.53  0.000000                                   0.000000  -0.000  -0.000   0.000
  13      7.7911300    62840.    159.13  0.000000                                   0.000000   0.000  -0.000   0.000
  14      7.8035843    62940.    158.88  0.000000                                   0.000000  -0.000  -0.000  -0.000
  15      7.8035849    62940.    158.88  0.000000                                   0.000000   0.000  -0.000   0.000
  16      7.8304999    63157.    158.33  0.000253  -0.000000   0.000000  -1.000000  0.000000  -0.000  -0.000  -0.000
  17      7.9388783    64032.    156.17  0.000000                                   0.000000   0.000  -0.000  -0.000
  18      9.1416804    73733.    135.62  0.000000                                   0.000000  -0.000  -0.000   0.000
  19      9.1416834    73733.    135.62  0.000000                                   0.000000  -0.000  -0.000   0.000
  20      9.3068107    75065.    133.22  0.000000                                   0.000000   0.000  -0.000  -0.000
  21      9.3068135    75065.    133.22  0.000000                                   0.000000  -0.000   0.000  -0.000
  22      9.3229262    75195.    132.99  0.187379   0.000000  -0.000000  -1.000000  0.000000  -0.000  -0.000   0.000
  23      9.5038678    76654.    130.46  0.000000                                   0.000000  -0.000   0.000   0.000
  24      9.5038696    76654.    130.46  0.000000                                   0.000000   0.000  -0.000   0.000
  25      9.5330902    76890.    130.06  0.000000                                   0.000000   0.000  -0.000  -0.000
  26      9.5330902    76890.    130.06  0.000000                                   0.000000  -0.000   0.000  -0.000
  27      9.8504651    79450.    125.87  0.000000                                   0.000000   0.000   0.000   0.000
  28     10.2828795    82937.    120.57  0.000000                                   0.000000  -0.000  -0.000   0.000
  29     11.0891289    89440.    111.81  0.192914  -1.000000  -0.000003  -0.000000  0.000000  -0.000  -0.000   0.000
  30     11.0891317    89440.    111.81  0.192915   0.000003  -1.000000  -0.000000  0.000000  -0.000  -0.000  -0.000
  31     11.1838427    90204.    110.86  0.000000                                   0.000000  -0.000  -0.000  -0.000
  32     11.4786103    92581.    108.01  0.000000                                   0.000000  -0.000  -0.000   0.000
  33     11.4786112    92581.    108.01  0.000000                                   0.000000  -0.000  -0.000   0.000
  34     11.5186990    92905.    107.64  0.000000                                   0.000000   0.000  -0.000   0.000
  35     11.6795219    94202.    106.15  0.000000                                   0.000000   0.000   0.000  -0.000
  36     11.6995004    94363.    105.97  0.000000                                   0.000000  -0.000  -0.000   0.000
  37     11.8447292    95534.    104.67  0.000000                                   0.000000   0.000  -0.000   0.000
  38     11.8719132    95754.    104.43  0.000000                                   0.000000  -0.000  -0.000   0.000
  39     11.8719134    95754.    104.43  0.000000                                   0.000000  -0.000  -0.000  -0.000
  40     11.9004889    95984.    104.18  0.000000                                   0.000000  -0.000  -0.000   0.000
  41     11.9004915    95984.    104.18  0.000000                                   0.000000  -0.000  -0.000   0.000
  42     11.9720911    96562.    103.56  0.000000                                   0.000000   0.000  -0.000   0.000
  43     12.5260358   101030.     98.98  0.000000                                   0.000000   0.000  -0.000   0.000
  44     12.5260370   101030.     98.98  0.000000                                   0.000000  -0.000   0.000  -0.000
  45     12.5961764   101595.     98.43  0.000000                                   0.000000  -0.000   0.000   0.000
  46     12.5961764   101595.     98.43  0.000000                                   0.000000   0.000   0.000  -0.000
  47     12.6685666   102179.     97.87  0.000000                                   0.000000  -0.000  -0.000   0.000
  48     12.6685671   102179.     97.87  0.000000                                   0.000000   0.000  -0.000  -0.000
  49     13.0862206   105548.     94.74  0.000000                                   0.000000  -0.000  -0.000   0.000
  50     13.0862228   105548.     94.74  0.000000                                   0.000000  -0.000  -0.000   0.000
  51     13.1281536   105886.     94.44  0.000000                                   0.000000   0.000   0.000   0.000
  52     13.1742277   106258.     94.11  0.000000                                   0.000000   0.000  -0.000   0.000
  53     13.2186099   106616.     93.79  0.000000                                   0.000000   0.000   0.000  -0.000
  54     13.2186152   106616.     93.79  0.000000                                   0.000000   0.000   0.000   0.000
  55     13.3998025   108077.     92.53  0.000000                                   0.000000  -0.000  -0.000   0.000
  56     13.3998039   108077.     92.53  0.000000                                   0.000000   0.000  -0.000  -0.000
  57     13.6457844   110061.     90.86  0.000000                                   0.000000   0.000  -0.000   0.000
  58     13.6493814   110090.     90.83  0.024673  -1.000000   0.000013   0.000000  0.000000   0.000  -0.000   0.000
  59     13.6493825   110090.     90.83  0.024673   0.000013   1.000000  -0.000000  0.000000   0.000  -0.000  -0.000
  60     13.8494625   111704.     89.52  0.003365   0.000000   0.000000   1.000000  0.000000  -0.000  -0.000   0.000
  61     13.9474798   112494.     88.89  0.000000                                   0.000000  -0.000  -0.000   0.000
  62     13.9474851   112494.     88.89  0.000000                                   0.000000  -0.000  -0.000  -0.000
  63     14.3207346   115505.     86.58  0.000000                                   0.000000   0.000   0.000   0.000
  64     14.3207366   115505.     86.58  0.000000                                   0.000000   0.000  -0.000   0.000
  65     14.6427348   118102.     84.67  0.070224  -0.000008   1.000000   0.000000  0.000000   0.000   0.000   0.000
  66     14.6427356   118102.     84.67  0.070224   1.000000   0.000008  -0.000000  0.000000   0.000  -0.000   0.000
  67     14.7200318   118725.     84.23  0.000000                                   0.000000   0.000  -0.000   0.000
  68     14.7312817   118816.     84.16  0.000000                                   0.000000   0.000  -0.000   0.000
  69     14.8316443   119626.     83.59  0.000000                                   0.000000   0.000  -0.000   0.000
  70     14.9610968   120670.     82.87  0.000000                                   0.000000   0.000   0.000  -0.000
  71     15.0546226   121424.     82.36  0.000000                                   0.000000  -0.000  -0.000   0.000
  72     15.0546226   121424.     82.36  0.000000                                   0.000000   0.000  -0.000   0.000
  73     15.4929662   124960.     80.03  0.013296  -0.000000   0.000000  -1.000000  0.000000  -0.000  -0.000  -0.000
  74     15.5834119   125689.     79.56  0.000000                                   0.000000  -0.000  -0.000   0.000
  75     15.6466009   126199.     79.24  0.340520   0.000000  -0.000000  -1.000000  0.000000  -0.000  -0.000   0.000
  76     15.8186211   127586.     78.38  0.000000                                   0.000000  -0.000  -0.000  -0.000
  77     15.9333239   128511.     77.81  0.000000                                   0.000000   0.000   0.000   0.000
  78     15.9333265   128511.     77.81  0.000000                                   0.000000   0.000  -0.000   0.000
  79     15.9646558   128764.     77.66  0.063257   1.000000   0.000005  -0.000000  0.000000  -0.000  -0.000   0.000
  80     15.9646572   128764.     77.66  0.063258   0.000005  -1.000000   0.000000  0.000000  -0.000  -0.000   0.000
  81     16.0441822   129405.     77.28  0.000000                                   0.000000   0.000   0.000   0.000
  82     16.1750898   130461.     76.65  0.729630   1.000000  -0.000006   0.000000  0.000000  -0.000  -0.000   0.000
  83     16.1750950   130461.     76.65  0.729629  -0.000006  -1.000000  -0.000000  0.000000  -0.000  -0.000   0.000
  84     16.4106080   132361.     75.55  0.000000                                   0.000000   0.000   0.000   0.000
  85     16.4106093   132361.     75.55  0.000000                                   0.000000   0.000   0.000   0.000
  86     16.6345986   134167.     74.53  0.000000                                   0.000000   0.000  -0.000   0.000
  87     16.6346002   134167.     74.53  0.000000                                   0.000000   0.000  -0.000   0.000
  88     16.7659793   135227.     73.95  0.000000                                   0.000000   0.000   0.000   0.000
  89     16.7664482   135231.     73.95  0.034735   1.000000   0.000006   0.000000  0.000000  -0.000  -0.000   0.000
  90     16.7664490   135231.     73.95  0.034735   0.000006  -1.000000   0.000000  0.000000  -0.000  -0.000   0.000
  91     16.7775233   135320.     73.90  0.000000                                   0.000000   0.000   0.000   0.000
  92     16.9738473   136904.     73.04  0.000000                                   0.000000  -0.000  -0.000   0.000
  93     17.1928961   138670.     72.11  0.008695   1.000000   0.000003  -0.000000  0.000000  -0.000  -0.000   0.000
  94     17.1928975   138670.     72.11  0.008694  -0.000003   1.000000   0.000000  0.000000  -0.000  -0.000   0.000
  95     17.2190809   138882.     72.00  0.000000                                   0.000000   0.000   0.000   0.000
  96     17.5823966   141812.     70.52  0.000000                                   0.000000  -0.000  -0.000   0.000
  97     17.6584524   142425.     70.21  0.000000                                   0.000000   0.000   0.000   0.000
  98     17.6584529   142425.     70.21  0.000000                                   0.000000   0.000  -0.000   0.000
  99     18.4887041   149122.     67.06  0.000000                                   0.000000  -0.000  -0.000   0.000
 100     18.5293425   149450.     66.91  0.000000                                   0.000000   0.000  -0.000   0.000
 101     18.5293444   149450.     66.91  0.000000                                   0.000000  -0.000  -0.000   0.000
 102     18.6720797   150601.     66.40  0.000000                                   0.000000   0.000  -0.000   0.000
 103     18.8838887   152309.     65.66  0.000000                                   0.000000  -0.000   0.000   0.000
 104     18.8838890   152309.     65.66  0.000000                                   0.000000   0.000  -0.000   0.000
 105     19.1662873   154587.     64.69  1.195559   0.000027  -1.000000  -0.000000  0.000000  -0.000  -0.000   0.000
 106     19.1662878   154587.     64.69  1.195559  -1.000000  -0.000027  -0.000000  0.000000  -0.000  -0.000   0.000
 107     19.2354302   155145.     64.46  0.000000                                   0.000000  -0.000  -0.000   0.000
 108     19.2354325   155145.     64.46  0.000000                                   0.000000  -0.000  -0.000  -0.000
 109     19.2682804   155410.     64.35  0.000000                                   0.000000   0.000   0.000   0.000
 110     19.2682829   155410.     64.35  0.000000                                   0.000000   0.000   0.000   0.000
 111     19.8027815   159721.     62.61  0.000000                                   0.000000   0.000  -0.000   0.000
 112     19.9326368   160768.     62.20  0.000000                                   0.000000  -0.000   0.000   0.000
 113     19.9326369   160768.     62.20  0.000000                                   0.000000   0.000  -0.000   0.000
 114     20.0838797   161988.     61.73  0.120486  -0.000000  -1.000000   0.000000  0.000000  -0.000  -0.000  -0.000
 115     20.0838802   161988.     61.73  0.120485  -1.000000   0.000000   0.000000  0.000000  -0.000  -0.000   0.000
 116     20.0909477   162045.     61.71  0.000000   1.000000   0.000036   0.000000  0.000000   0.000  -0.000   0.000
 117     20.4823362   165202.     60.53  0.000000                                   0.000000  -0.000  -0.000   0.000
 118     20.5162202   165475.     60.43  0.000000                                   0.000000   0.000   0.000  -0.000
 119     20.5162211   165475.     60.43  0.000000                                   0.000000   0.000  -0.000   0.000
 120     20.6275692   166373.     60.11  0.000000                                   0.000000  -0.000  -0.000   0.000
 121     20.6635704   166663.     60.00  0.000000                                   0.000000   0.000   0.000   0.000
 122     20.7817819   167617.     59.66  0.000000                                   0.000000  -0.000  -0.000   0.000
 123     20.7817821   167617.     59.66  0.000000                                   0.000000  -0.000  -0.000  -0.000
 124     20.8941774   168523.     59.34  0.000000                                   0.000000  -0.000  -0.000   0.000
 125     21.0356412   169664.     58.94  0.517009  -0.000000  -0.000000   1.000000  0.000000  -0.000  -0.000  -0.000
 126     21.3629491   172304.     58.04  0.085011   1.000000  -0.000036  -0.000000  0.000000  -0.000   0.000   0.000
 127     21.3629502   172304.     58.04  0.085011  -0.000036  -1.000000  -0.000000  0.000000   0.000  -0.000   0.000
 128     21.4613494   173098.     57.77  0.000000                                   0.000000  -0.000  -0.000  -0.000
 129     21.6005655   174221.     57.40  0.000000                                   0.000000   0.000   0.000   0.000
 130     21.7764279   175639.     56.93  0.000000                                   0.000000  -0.000  -0.000   0.000
 131     22.0124053   177542.     56.32  0.042908  -0.000045  -1.000000  -0.000000  0.000000  -0.000  -0.000   0.000
 132     22.0124062   177542.     56.32  0.042908  -1.000000   0.000045  -0.000000  0.000000   0.000  -0.000  -0.000
 133     22.0289372   177676.     56.28  0.000000                                   0.000000  -0.000  -0.000   0.000
 134     22.0289387   177676.     56.28  0.000000                                   0.000000  -0.000  -0.000   0.000
 135     22.0652073   177968.     56.19  0.000000                                   0.000000   0.000   0.000  -0.000
 136     22.2342011   179331.     55.76  0.000000                                   0.000000  -0.000  -0.000   0.000
 137     22.7698911   183652.     54.45  0.231747   0.000006   1.000000  -0.000000  0.000000   0.000   0.000  -0.000
 138     22.7698961   183652.     54.45  0.231747  -1.000000   0.000006   0.000000  0.000000   0.000   0.000  -0.000
 139     23.0343893   185785.     53.83  0.000000                                   0.000000   0.000  -0.000   0.000
 140     23.0343907   185785.     53.83  0.000000                                   0.000000  -0.000   0.000   0.000
 141     23.1422842   186656.     53.57  0.000000                                   0.000000   0.000   0.000   0.000
 142     23.1422883   186656.     53.57  0.000000                                   0.000000   0.000   0.000   0.000
 143     23.8848820   192645.     51.91  0.001198   0.000001   1.000000   0.000000  0.000000  -0.000  -0.000  -0.000
 144     23.8848853   192645.     51.91  0.001198   1.000000  -0.000001   0.000000  0.000000  -0.000  -0.000   0.000
 145     23.9764627   193384.     51.71  0.000000                                   0.000000   0.000  -0.000   0.000
 146     23.9764627   193384.     51.71  0.000000                                   0.000000   0.000   0.000  -0.000
 147     24.3432697   196342.     50.93  0.000000                                   0.000000   0.000   0.000   0.000
 148     24.3510490   196405.     50.92  0.000000                                   0.000000   0.000  -0.000   0.000
 149     24.3510498   196405.     50.92  0.000000                                   0.000000  -0.000  -0.000   0.000
 150     24.6184096   198561.     50.36  0.000000                                   0.000000  -0.000  -0.000   0.000
 151     24.8924377   200772.     49.81  0.000000                                   0.000000  -0.000  -0.000   0.000
 152     24.8952417   200794.     49.80  0.000000                                   0.000000   0.000   0.000   0.000
 153     25.2995488   204055.     49.01  0.003519  -0.000008  -1.000000   0.000000  0.000000  -0.000   0.000   0.000
 154     25.2995514   204055.     49.01  0.003519  -1.000000   0.000008   0.000000  0.000000   0.000  -0.000   0.000
 155     25.4426671   205209.     48.73  0.000000                                   0.000000   0.000  -0.000  -0.000
 156     25.4426677   205209.     48.73  0.000000                                   0.000000  -0.000  -0.000   0.000
 157     25.4433910   205215.     48.73  0.000000                                   0.000000   0.000   0.000  -0.000
 158     26.0742569   210304.     47.55  0.000000                                   0.000000  -0.000  -0.000   0.000
 159     26.0742616   210304.     47.55  0.000000                                   0.000000  -0.000  -0.000   0.000
 160     26.2986672   212114.     47.14  0.000000                                   0.000000   0.000   0.000   0.000
 161     26.4533616   213361.     46.87  0.019498   1.000000  -0.000028   0.000000  0.000000   0.000   0.000   0.000
 162     26.4533619   213361.     46.87  0.019498   0.000028   1.000000  -0.000000  0.000000   0.000   0.000   0.000
 163     26.9322462   217224.     46.04  0.000000                                   0.000000   0.000  -0.000   0.000
 164     27.8601292   224708.     44.50  0.000000                                   0.000000  -0.000  -0.000   0.000
 165     28.1874763   227348.     43.99  0.000000                                   0.000000   0.000   0.000   0.000
 166     28.1874766   227348.     43.99  0.000000                                   0.000000   0.000  -0.000   0.000
 167     28.6261775   230886.     43.31  0.000000                                   0.000000  -0.000  -0.000  -0.000
 168     28.6285652   230906.     43.31  0.000000                                   0.000000  -0.000  -0.000   0.000
 169     28.7415514   231817.     43.14  0.000000                                   0.000000  -0.000  -0.000  -0.000
 170     28.7415514   231817.     43.14  0.000000                                   0.000000  -0.000  -0.000   0.000
 171     28.8208177   232456.     43.02  0.102057   0.000002  -1.000000  -0.000000  0.000000  -0.000  -0.000   0.000
 172     28.8208220   232456.     43.02  0.102057   1.000000   0.000002   0.000000  0.000000  -0.000  -0.000   0.000
 173     29.3281276   236548.     42.27  0.000000                                   0.000000   0.000   0.000   0.000
 174     29.4676608   237673.     42.07  0.000000                                   0.000000   0.000  -0.000   0.000
 175     29.4676610   237673.     42.07  0.000000                                   0.000000   0.000  -0.000   0.000
 176     29.7790565   240185.     41.63  0.000000                                   0.000000   0.000  -0.000   0.000
 177     30.3599398   244870.     40.84  0.012490   0.000023  -1.000000   0.000000  0.000000  -0.000  -0.000   0.000
 178     30.3599402   244870.     40.84  0.012490  -1.000000  -0.000023   0.000000  0.000000   0.000  -0.000   0.000
 179     31.0112029   250123.     39.98  0.000000                                   0.000000   0.000   0.000  -0.000
 180     31.0112079   250123.     39.98  0.000000                                   0.000000   0.000   0.000  -0.000
 181     31.0366876   250328.     39.95  0.000000                                   0.000000   0.000   0.000   0.000
 182     31.4701742   253825.     39.40  0.000000                                   0.000000  -0.000  -0.000   0.000
 183     31.4701790   253825.     39.40  0.000000                                   0.000000  -0.000  -0.000   0.000
 184     31.5493781   254464.     39.30  0.000000                                   0.000000   0.000   0.000   0.000
 185     31.8901695   257212.     38.88  0.078434   0.000015  -1.000000   0.000000  0.000000   0.000   0.000  -0.000
 186     31.8901696   257212.     38.88  0.078434   1.000000   0.000015   0.000000  0.000000   0.000   0.000   0.000
 187     32.1752710   259512.     38.53  0.000000                                   0.000000  -0.000  -0.000   0.000
 188     32.3126769   260620.     38.37  0.000000                                   0.000000   0.000  -0.000  -0.000
 189     33.0713298   266739.     37.49  0.029657  -1.000000   0.000014  -0.000000  0.000000   0.000  -0.000   0.000
 190     33.0713304   266739.     37.49  0.029657   0.000014   1.000000  -0.000000  0.000000  -0.000  -0.000  -0.000
 191     33.5488543   270590.     36.96  0.000000                                   0.000000  -0.000   0.000  -0.000
 192     33.5488582   270590.     36.96  0.000000                                   0.000000  -0.000   0.000  -0.000
 193     33.6981785   271795.     36.79  0.004876  -1.000000   0.000011   0.000000  0.000000  -0.000  -0.000   0.000
 194     33.6981833   271795.     36.79  0.004876   0.000011   1.000000   0.000000  0.000000  -0.000  -0.000   0.000
 195     33.8428486   272962.     36.64  0.000000                                   0.000000  -0.000  -0.000   0.000
 196     34.1596155   275517.     36.30  0.000000                                   0.000000  -0.000   0.000   0.000
 197     34.2387813   276155.     36.21  0.000000                                   0.000000   0.000   0.000   0.000
 198     34.4384358   277765.     36.00  0.000000                                   0.000000   0.000   0.000   0.000
 199     34.4384359   277765.     36.00  0.000000                                   0.000000   0.000  -0.000   0.000
 200     36.6591323   295677.     33.82  0.000000                                   0.000000  -0.000  -0.000  -0.000
 201     36.6591376   295677.     33.82  0.000000                                   0.000000  -0.000  -0.000   0.000
 202     37.2377706   300344.     33.30  0.000000                                   0.000000   0.000   0.000   0.000
 203     37.3316959   301101.     33.21  0.087614   1.000000   0.000030  -0.000000  0.000000   0.000   0.000   0.000
 204     37.3316960   301101.     33.21  0.087614   0.000030  -1.000000   0.000000  0.000000   0.000  -0.000   0.000
 205     37.5238034   302651.     33.04  0.000000                                   0.000000   0.000  -0.000   0.000
 206     39.2108188   316257.     31.62  0.000000                                   0.000000  -0.000  -0.000   0.000
 207     39.2108206   316257.     31.62  0.000000                                   0.000000   0.000  -0.000   0.000
 208     39.7453516   320569.     31.19  0.000000                                   0.000000  -0.000  -0.000   0.000
 209     39.7485411   320594.     31.19  0.000000                                   0.000000  -0.000  -0.000   0.000
 210     40.1601474   323914.     30.87  0.000000                                   0.000000  -0.000  -0.000   0.000
 211     40.1601479   323914.     30.87  0.000000                                   0.000000  -0.000  -0.000  -0.000
 212     41.0157251   330815.     30.23  0.172653   0.000009   1.000000   0.000000  0.000000   0.000   0.000   0.000
 213     41.0157306   330815.     30.23  0.172653   1.000000  -0.000009  -0.000000  0.000000   0.000   0.000   0.000
 214     41.5730759   335310.     29.82  0.000000                                   0.000000   0.000   0.000   0.000
 215     42.4321196   342239.     29.22  0.000000                                   0.000000  -0.000  -0.000  -0.000
 216     43.1363506   347919.     28.74  0.000000                                   0.000000   0.000  -0.000   0.000
 217     43.1363514   347919.     28.74  0.000000                                   0.000000  -0.000   0.000   0.000
 218     44.1012926   355702.     28.11  0.000000                                   0.000000  -0.000  -0.000   0.000
 219     44.6044827   359760.     27.80  0.012217   0.000012   1.000000  -0.000000  0.000000   0.000   0.000   0.000
 220     44.6044851   359760.     27.80  0.012217   1.000000  -0.000012  -0.000000  0.000000   0.000  -0.000   0.000
 221     47.5125647   383216.     26.09  0.000000                                   0.000000  -0.000  -0.000   0.000
 222     48.2673193   389303.     25.69  0.000000                                   0.000000   0.000   0.000   0.000
 223     48.2673194   389303.     25.69  0.000000                                   0.000000  -0.000  -0.000   0.000
 224     50.7683093   409475.     24.42  0.186713   0.000244  -1.000000  -0.000000  0.000000  -0.000  -0.000   0.000
 225     50.7683093   409475.     24.42  0.186713   1.000000   0.000244  -0.000000  0.000000   0.000  -0.000   0.000
 226     51.0016510   411357.     24.31  0.000000                                   0.000000   0.000   0.000   0.000

 Polarizability (au  ) xx=   72.33 xy=    0.00 yy=   72.33 xz=   -0.00 yz=   -0.00 zz=   10.65
 Polarizability (A**3) xx=   10.72 xy=    0.00 yy=   10.72 xz=   -0.00 yz=   -0.00 zz=    1.58


 Major CI contributions to CI states

State    1  0.0000     CI coeff  CI percent
    Config       1   1.00000000  1.00000000
 Total coeff printed             1.00000000
  
State    2  4.7083     CI coeff  CI percent
    Config       2   0.70710705  0.50000038
    Config       3   0.70710650  0.49999960
 Total coeff printed             0.99999998
  
State    3  5.3612     CI coeff  CI percent
    Config       4  -0.69336480  0.48075474
    Config       5   0.69336172  0.48075048
    Config      41   0.06195261  0.00383813
    Config      67  -0.04503206  0.00202789
    Config      68  -0.04503182  0.00202787
    Config     114  -0.07040777  0.00495725
    Config     115  -0.07040792  0.00495728
    Config     116   0.05743475  0.00329875
    Config     117  -0.05743455  0.00329873
    Config     157  -0.07024337  0.00493413
 Total coeff printed             0.99084523
  
State    4  6.2211     CI coeff  CI percent
    Config       4   0.68863184  0.47421381
    Config       5   0.68863493  0.47421807
    Config      33   0.12021242  0.01445103
    Config      59  -0.05639563  0.00318047
    Config      60  -0.05639557  0.00318046
    Config      82  -0.06689247  0.00447460
    Config      90  -0.08842303  0.00781863
    Config     116  -0.04288140  0.00183881
    Config     117  -0.04288174  0.00183884
    Config     127   0.04085725  0.00166931
    Config     139  -0.04070495  0.00165689
 Total coeff printed             0.98854093
  
State    5  6.2211     CI coeff  CI percent
    Config       2  -0.68863310  0.47421554
    Config       3   0.68863366  0.47421632
    Config      32   0.12021249  0.01445104
    Config      57   0.05639555  0.00318046
    Config      58  -0.05639557  0.00318046
    Config      81  -0.06689251  0.00447461
    Config      91  -0.08842293  0.00781861
    Config     112  -0.04288167  0.00183884
    Config     113   0.04288159  0.00183883
    Config     126  -0.04085717  0.00166931
    Config     140  -0.04070493  0.00165689
 Total coeff printed             0.98854092
  
State    6  7.0616     CI coeff  CI percent
    Config       6  -0.98743249  0.97502292
    Config      22   0.04156414  0.00172758
    Config      23  -0.04156396  0.00172756
    Config      39   0.04308777  0.00185656
    Config      42  -0.12897468  0.01663447
 Total coeff printed             0.99696909
  
State    7  7.0616     CI coeff  CI percent
    Config       7   0.98743248  0.97502290
    Config      20   0.04156405  0.00172757
    Config      21   0.04156403  0.00172757
    Config      40  -0.04308774  0.00185655
    Config      43  -0.12897478  0.01663449
 Total coeff printed             0.99696909
  
State    8  7.5044     CI coeff  CI percent
    Config      14   0.97734378  0.95520086
    Config      24  -0.07849028  0.00616072
    Config      35   0.07205217  0.00519151
    Config      36  -0.07205215  0.00519151
    Config      61  -0.06831748  0.00466728
    Config      88   0.04624034  0.00213817
    Config      89   0.04624032  0.00213817
    Config      99  -0.04230952  0.00179010
    Config     108   0.05353427  0.00286592
    Config     120   0.05835289  0.00340506
    Config     148   0.05621213  0.00315980
 Total coeff printed             0.99190910
  
State    9  7.5044     CI coeff  CI percent
    Config      15   0.97734374  0.95520079
    Config      25   0.07849053  0.00616076
    Config      37  -0.07205223  0.00519152
    Config      38  -0.07205209  0.00519150
    Config      62   0.06831740  0.00466727
    Config      94   0.04624036  0.00213817
    Config      95  -0.04624036  0.00213817
    Config     100  -0.04230953  0.00179010
    Config     109  -0.05353428  0.00286592
    Config     119  -0.05835294  0.00340507
    Config     147  -0.05621208  0.00315980
 Total coeff printed             0.99190907
  
State   10  7.7174     CI coeff  CI percent
    Config       8   0.68684939  0.47176209
    Config       9  -0.68682199  0.47172445
    Config      34   0.23124084  0.05347233
 Total coeff printed             0.99695886
  
State   11  7.7717     CI coeff  CI percent
    Config       6  -0.04690032  0.00219964
    Config      16  -0.69325698  0.48060524
    Config      17   0.69321040  0.48054066
    Config      50  -0.18357264  0.03369891
    Config     104   0.04479099  0.00200623
 Total coeff printed             0.99905069
  
State   12  7.7717     CI coeff  CI percent
    Config       7   0.04690034  0.00219964
    Config      12  -0.69325659  0.48060469
    Config      13  -0.69321084  0.48054127
    Config      51  -0.18357246  0.03369885
    Config     105   0.04479097  0.00200623
 Total coeff printed             0.99905069
  
State   13  7.7911     CI coeff  CI percent
    Config      16  -0.69616585  0.48464689
    Config      17  -0.69621228  0.48471154
    Config      69  -0.15807499  0.02498770
    Config     122  -0.04509584  0.00203363
    Config     123   0.04509485  0.00203355
 Total coeff printed             0.99841331
  
State   14  7.8036     CI coeff  CI percent
    Config       8  -0.69164189  0.47836851
    Config       9  -0.69166905  0.47840607
    Config      19   0.14169205  0.02007664
    Config      63   0.12987983  0.01686877
    Config      76   0.04058925  0.00164749
 Total coeff printed             0.99536747
  
State   15  7.8036     CI coeff  CI percent
    Config      10   0.69165852  0.47839151
    Config      11  -0.69165229  0.47838290
    Config      18   0.14169276  0.02007684
    Config      64  -0.12987967  0.01686873
    Config      77  -0.04058923  0.00164749
 Total coeff printed             0.99536746
  
State   16  7.8305     CI coeff  CI percent
    Config      12  -0.70091317  0.49127927
    Config      13   0.70095837  0.49134264
    Config      75  -0.11997816  0.01439476
 Total coeff printed             0.99701667
  
State   17  7.9389     CI coeff  CI percent
    Config      10   0.70550214  0.49773327
    Config      11   0.70550824  0.49774187
    Config      48   0.04727661  0.00223508
    Config      49  -0.04727665  0.00223508
 Total coeff printed             0.99994530
  
State   18  9.1417     CI coeff  CI percent
    Config      10   0.09225594  0.00851116
    Config      11  -0.09225591  0.00851115
    Config      18  -0.88824874  0.78898582
    Config      26   0.30802760  0.09488100
    Config      30   0.15384903  0.02366952
    Config      31   0.15384845  0.02366934
    Config      45   0.08181456  0.00669362
    Config      48   0.09179168  0.00842571
    Config      49   0.09179173  0.00842572
    Config      52   0.08757688  0.00766971
    Config      64   0.13281389  0.01763953
    Config     110  -0.05301506  0.00281060
 Total coeff printed             0.99989289
  
State   19  9.1417     CI coeff  CI percent
    Config       8   0.09225543  0.00851106
    Config       9   0.09225546  0.00851107
    Config      19   0.88824827  0.78898499
    Config      27  -0.30802855  0.09488159
    Config      28   0.15384943  0.02366965
    Config      29  -0.15384898  0.02366951
    Config      44  -0.08181505  0.00669370
    Config      46  -0.09179186  0.00842575
    Config      47   0.09179171  0.00842572
    Config      53   0.08757707  0.00766974
    Config      63   0.13281384  0.01763952
    Config     111   0.05301512  0.00281060
 Total coeff printed             0.99989289
  
State   20  9.3068     CI coeff  CI percent
    Config      10   0.06197571  0.00384099
    Config      11  -0.06197570  0.00384099
    Config      18  -0.38276651  0.14651020
    Config      26  -0.72149553  0.52055581
    Config      30  -0.35936976  0.12914662
    Config      31  -0.35936830  0.12914557
    Config      45  -0.20011853  0.04004743
    Config      52  -0.15067785  0.02270381
    Config      64   0.05287237  0.00279549
 Total coeff printed             0.99858691
  
State   21  9.3068     CI coeff  CI percent
    Config       8  -0.06197568  0.00384099
    Config       9  -0.06197541  0.00384095
    Config      19  -0.38276780  0.14651119
    Config      27  -0.72149506  0.52055512
    Config      28   0.35936955  0.12914647
    Config      29  -0.35936792  0.12914530
    Config      44  -0.20011889  0.04004757
    Config      53   0.15067778  0.02270379
    Config      63  -0.05287256  0.00279551
 Total coeff printed             0.99858690
  
State   22  9.3229     CI coeff  CI percent
    Config      20  -0.68123378  0.46407946
    Config      21   0.68123402  0.46407978
    Config      56   0.25436092  0.06469948
 Total coeff printed             0.99285872
  
State   23  9.5039     CI coeff  CI percent
    Config      14   0.12131553  0.01471746
    Config      24   0.96717154  0.93542079
    Config      35  -0.10782746  0.01162676
    Config      36   0.10782738  0.01162674
    Config      61   0.08388068  0.00703597
    Config      88  -0.04606312  0.00212181
    Config      89  -0.04606309  0.00212181
    Config      99   0.04217642  0.00177885
    Config     108  -0.04908150  0.00240899
    Config     120  -0.05121370  0.00262284
    Config     148  -0.04863845  0.00236570
 Total coeff printed             0.99384772
  
State   24  9.5039     CI coeff  CI percent
    Config      15   0.12131579  0.01471752
    Config      25  -0.96717153  0.93542077
    Config      37   0.10782751  0.01162677
    Config      38   0.10782723  0.01162671
    Config      62  -0.08388051  0.00703594
    Config      94  -0.04606311  0.00212181
    Config      95   0.04606310  0.00212181
    Config     100   0.04217641  0.00177885
    Config     109   0.04908148  0.00240899
    Config     119   0.05121372  0.00262285
    Config     147   0.04863838  0.00236569
 Total coeff printed             0.99384770
  
State   25  9.5331     CI coeff  CI percent
    Config       7   0.07982501  0.00637203
    Config      20  -0.67362933  0.45377648
    Config      21  -0.67362902  0.45377605
    Config      40  -0.16202606  0.02625244
    Config      43   0.23057707  0.05316578
    Config      96  -0.07528896  0.00566843
 Total coeff printed             0.99901122
  
State   26  9.5331     CI coeff  CI percent
    Config       6  -0.07982499  0.00637203
    Config      22  -0.67363427  0.45378313
    Config      23   0.67362401  0.45376931
    Config      39   0.16202621  0.02625249
    Config      42   0.23057716  0.05316583
    Config      97   0.07528896  0.00566843
 Total coeff printed             0.99901122
  
State   27  9.8505     CI coeff  CI percent
    Config      22   0.69954929  0.48936920
    Config      23   0.69955902  0.48938282
    Config      70  -0.08359926  0.00698884
    Config      71   0.08359943  0.00698886
    Config     118   0.07633115  0.00582644
 Total coeff printed             0.99855617
  
State   28 10.2829     CI coeff  CI percent
    Config      28   0.69628828  0.48481737
    Config      29   0.69628597  0.48481415
    Config      34   0.04128133  0.00170415
    Config      46  -0.06861522  0.00470805
    Config      47  -0.06861518  0.00470804
    Config      83  -0.04240361  0.00179807
    Config     129  -0.12022494  0.01445404
 Total coeff printed             0.99700386
  
State   29 11.0891     CI coeff  CI percent
    Config       2  -0.08096899  0.00655598
    Config       3   0.08096901  0.00655598
    Config      32  -0.98207159  0.96446461
    Config      65   0.06487815  0.00420917
    Config      66   0.06487793  0.00420915
    Config      92   0.07192136  0.00517268
 Total coeff printed             0.99116757
  
State   30 11.0891     CI coeff  CI percent
    Config       4   0.08096897  0.00655597
    Config       5   0.08096892  0.00655597
    Config      33  -0.98207160  0.96446463
    Config      67  -0.06487801  0.00420916
    Config      68   0.06487796  0.00420915
    Config      93  -0.07192138  0.00517268
 Total coeff printed             0.99116756
  
State   31 11.1838     CI coeff  CI percent
    Config      30   0.70693109  0.49975157
    Config      31  -0.70692726  0.49974615
 Total coeff printed             0.99949772
  
State   32 11.4786     CI coeff  CI percent
    Config      27  -0.50574064  0.25577359
    Config      28  -0.58175476  0.33843860
    Config      29   0.58175834  0.33844277
    Config      44  -0.25510891  0.06508055
 Total coeff printed             0.99773551
  
State   33 11.4786     CI coeff  CI percent
    Config      26   0.50574123  0.25577419
    Config      30  -0.58175375  0.33843742
    Config      31  -0.58175936  0.33844396
    Config      45   0.25510771  0.06507994
 Total coeff printed             0.99773552
  
State   34 11.5187     CI coeff  CI percent
    Config      35  -0.69375573  0.48129701
    Config      36  -0.69375234  0.48129231
    Config      74   0.13796943  0.01903556
    Config      84   0.08818668  0.00777689
    Config      85  -0.08818631  0.00777683
 Total coeff printed             0.99717860
  
State   35 11.6795     CI coeff  CI percent
    Config       4  -0.06838738  0.00467683
    Config       5   0.06838750  0.00467685
    Config      41  -0.97501763  0.95065939
    Config      59   0.05185763  0.00268921
    Config      60  -0.05185756  0.00268921
    Config      67   0.08049390  0.00647927
    Config      68   0.08049365  0.00647923
    Config     114   0.06774337  0.00458916
    Config     115   0.06774333  0.00458916
    Config     116  -0.05149590  0.00265183
    Config     117   0.05149588  0.00265183
    Config     157   0.05397810  0.00291364
 Total coeff printed             0.99574560
  
State   36 11.6995     CI coeff  CI percent
    Config       8  -0.14217881  0.02021481
    Config       9   0.14217892  0.02021485
    Config      28  -0.06918032  0.00478592
    Config      29  -0.06918204  0.00478616
    Config      34   0.83848742  0.70306116
    Config      46  -0.32465059  0.10539800
    Config      47  -0.32464978  0.10539748
    Config      83  -0.18872386  0.03561670
 Total coeff printed             0.99947508
  
State   37 11.8447     CI coeff  CI percent
    Config      37   0.69556394  0.48380919
    Config      38  -0.69547030  0.48367894
    Config      78  -0.09027679  0.00814990
    Config      94  -0.08869502  0.00786681
    Config      95  -0.08869704  0.00786717
    Config     128   0.04998187  0.00249819
 Total coeff printed             0.99387019
  
State   38 11.8719     CI coeff  CI percent
    Config      14  -0.08308630  0.00690333
    Config      24   0.16264873  0.02645461
    Config      35   0.68045801  0.46302310
    Config      36  -0.68046155  0.46302792
    Config      54  -0.06176402  0.00381479
    Config      61  -0.13452761  0.01809768
    Config     103   0.05771149  0.00333062
    Config     108  -0.05101292  0.00260232
    Config     120  -0.06356149  0.00404006
 Total coeff printed             0.99129443
  
State   39 11.8719     CI coeff  CI percent
    Config      15   0.08308627  0.00690333
    Config      25   0.16264866  0.02645459
    Config      37   0.68041199  0.46296047
    Config      38   0.68050767  0.46309068
    Config      55   0.06176405  0.00381480
    Config      62  -0.13452735  0.01809761
    Config     102   0.05771156  0.00333062
    Config     109  -0.05101282  0.00260231
    Config     119  -0.06356149  0.00404006
 Total coeff printed             0.99129447
  
State   40 11.9005     CI coeff  CI percent
    Config       6  -0.06408730  0.00410718
    Config      22  -0.10557119  0.01114528
    Config      23   0.10557157  0.01114536
    Config      39  -0.94798489  0.89867535
    Config      42   0.07753061  0.00601100
    Config      50  -0.05790498  0.00335299
    Config      70   0.10826446  0.01172119
    Config      71   0.10826454  0.01172121
    Config      97  -0.20203218  0.04081700
 Total coeff printed             0.99869655
  
State   41 11.9005     CI coeff  CI percent
    Config       7  -0.06408724  0.00410717
    Config      20   0.10557137  0.01114531
    Config      21   0.10557122  0.01114528
    Config      40  -0.94798486  0.89867529
    Config      43  -0.07753050  0.00601098
    Config      51   0.05790487  0.00335297
    Config      72   0.10826470  0.01172124
    Config      73  -0.10826454  0.01172121
    Config      96  -0.20203237  0.04081708
 Total coeff printed             0.99869655
  
State   42 11.9721     CI coeff  CI percent
    Config       8  -0.07703127  0.00593382
    Config       9   0.07703153  0.00593386
    Config      28   0.04632189  0.00214572
    Config      29   0.04632242  0.00214577
    Config      34   0.48916641  0.23928378
    Config      46   0.58670773  0.34422596
    Config      47   0.58670609  0.34422404
    Config      83   0.23686505  0.05610505
 Total coeff printed             0.99999798
  
State   43 12.5260     CI coeff  CI percent
    Config       6  -0.10762622  0.01158340
    Config      22   0.17671581  0.03122848
    Config      23  -0.17671612  0.03122859
    Config      39   0.08702063  0.00757259
    Config      42   0.94393477  0.89101285
    Config      50  -0.05743811  0.00329914
    Config      70   0.09346753  0.00873618
    Config      71   0.09346732  0.00873614
    Config      97  -0.07542131  0.00568837
 Total coeff printed             0.99908574
  
State   44 12.5260     CI coeff  CI percent
    Config       7  -0.10762633  0.01158343
    Config      20  -0.17671566  0.03122843
    Config      21  -0.17671613  0.03122859
    Config      40   0.08702059  0.00757258
    Config      43  -0.94393481  0.89101292
    Config      51   0.05743769  0.00329909
    Config      72   0.09346755  0.00873618
    Config      73  -0.09346738  0.00873615
    Config      96  -0.07542134  0.00568838
 Total coeff printed             0.99908574
  
State   45 12.5962     CI coeff  CI percent
    Config      18  -0.14906011  0.02221892
    Config      26   0.08289604  0.00687175
    Config      45  -0.24445783  0.05975963
    Config      48  -0.65228939  0.42548145
    Config      49  -0.65228566  0.42547658
    Config      52   0.09479750  0.00898657
    Config      64  -0.18569513  0.03448268
    Config      77   0.05164438  0.00266714
    Config     110   0.11047552  0.01220484
 Total coeff printed             0.99814956
  
State   46 12.5962     CI coeff  CI percent
    Config      19   0.14906009  0.02221891
    Config      27  -0.08289745  0.00687199
    Config      44   0.24446122  0.05976129
    Config      46   0.65228594  0.42547695
    Config      47  -0.65228760  0.42547912
    Config      53   0.09479839  0.00898674
    Config      63  -0.18569492  0.03448260
    Config      76   0.05164447  0.00266715
    Config     111  -0.11047543  0.01220482
 Total coeff printed             0.99814956
  
State   47 12.6686     CI coeff  CI percent
    Config      19   0.06238800  0.00389226
    Config      27   0.25185811  0.06343251
    Config      28   0.08379583  0.00702174
    Config      29  -0.08379626  0.00702181
    Config      44  -0.86820946  0.75378767
    Config      46   0.18048418  0.03257454
    Config      47  -0.18048447  0.03257464
    Config      53  -0.29125520  0.08482959
    Config      63  -0.09472370  0.00897258
    Config     141  -0.06822797  0.00465506
 Total coeff printed             0.99876241
  
State   48 12.6686     CI coeff  CI percent
    Config      18   0.06238742  0.00389219
    Config      26   0.25185726  0.06343208
    Config      30  -0.08379522  0.00702164
    Config      31  -0.08379590  0.00702175
    Config      45  -0.86821056  0.75378958
    Config      48   0.18048228  0.03257385
    Config      49   0.18048125  0.03257348
    Config      52   0.29125646  0.08483032
    Config      64   0.09472290  0.00897243
    Config     142   0.06822817  0.00465508
 Total coeff printed             0.99876241
  
State   49 13.0862     CI coeff  CI percent
    Config      35   0.06171742  0.00380904
    Config      36  -0.06171764  0.00380907
    Config      54   0.97252342  0.94580181
    Config      61   0.07114925  0.00506222
    Config      84   0.10045502  0.01009121
    Config      85   0.10045471  0.01009115
    Config      88   0.05596042  0.00313157
    Config      89   0.05596029  0.00313155
    Config      99   0.09153691  0.00837900
    Config     103   0.04161508  0.00173182
 Total coeff printed             0.99503844
  
State   50 13.0862     CI coeff  CI percent
    Config      37  -0.06171726  0.00380902
    Config      38  -0.06171787  0.00380910
    Config      55   0.97252338  0.94580173
    Config      62  -0.07114959  0.00506226
    Config      86  -0.10045477  0.01009116
[...]
    Config     190  -0.49589718  0.24591401
    Config     191  -0.49588981  0.24590671
    Config     195  -0.04494343  0.00201991
 Total coeff printed             0.99160946
  
State  186 31.8902     CI coeff  CI percent
    Config     144  -0.07087350  0.00502305
    Config     184  -0.49635600  0.24636928
    Config     185   0.49636327  0.24637650
    Config     186  -0.49589158  0.24590845
    Config     187   0.49589546  0.24591231
    Config     194   0.04494307  0.00201988
 Total coeff printed             0.99160947
  
State  187 32.1753     CI coeff  CI percent
    Config     157  -0.05804741  0.00336950
    Config     188   0.58539413  0.34268629
    Config     189  -0.58540281  0.34269644
    Config     190   0.38861110  0.15101859
    Config     191  -0.38861954  0.15102514
    Config     215   0.06028516  0.00363430
 Total coeff printed             0.99443027
  
State  188 32.3127     CI coeff  CI percent
    Config     156  -0.04138300  0.00171255
    Config     160   0.05435449  0.00295441
    Config     161  -0.05435465  0.00295443
    Config     184   0.38728062  0.14998628
    Config     185   0.38727732  0.14998372
    Config     186  -0.58796685  0.34570501
    Config     187  -0.58796458  0.34570235
 Total coeff printed             0.99899876
  
State  189 33.0713     CI coeff  CI percent
    Config       2  -0.04152387  0.00172423
    Config       3   0.04152388  0.00172423
    Config     140   0.05034582  0.00253470
    Config     155   0.04112702  0.00169143
    Config     178  -0.17543949  0.03077902
    Config     184   0.48468515  0.23491970
    Config     185  -0.48468793  0.23492239
    Config     186  -0.48884690  0.23897129
    Config     187   0.48884993  0.23897426
    Config     213  -0.05436735  0.00295581
 Total coeff printed             0.98919705
  
State  190 33.0713     CI coeff  CI percent
    Config       4  -0.04152409  0.00172425
    Config       5  -0.04152372  0.00172422
    Config     139  -0.05034581  0.00253470
    Config     154   0.04112703  0.00169143
    Config     177   0.17543934  0.03077896
    Config     188   0.48468759  0.23492206
    Config     189   0.48468545  0.23491999
    Config     190  -0.48884993  0.23897426
    Config     191  -0.48884699  0.23897138
    Config     212  -0.05436743  0.00295582
 Total coeff printed             0.98919707
  
State  191 33.5489     CI coeff  CI percent
    Config      24   0.04267858  0.00182146
    Config     133  -0.04045837  0.00163688
    Config     134   0.04045850  0.00163689
    Config     159  -0.04636244  0.00214948
    Config     166   0.09491668  0.00900918
    Config     182   0.28722450  0.08249791
    Config     192   0.88152945  0.77709417
    Config     198   0.22576696  0.05097072
    Config     199  -0.22576421  0.05096948
    Config     200   0.05406993  0.00292356
    Config     216  -0.06953601  0.00483526
 Total coeff printed             0.98554498
  
State  192 33.5489     CI coeff  CI percent
    Config      25   0.04267852  0.00182146
    Config     135   0.04045843  0.00163688
    Config     136   0.04045842  0.00163688
    Config     158  -0.04636232  0.00214947
    Config     165  -0.09491651  0.00900914
    Config     183  -0.28722431  0.08249780
    Config     193  -0.88152923  0.77709379
    Config     196   0.22576676  0.05097063
    Config     197   0.22576577  0.05097018
    Config     201  -0.05406990  0.00292355
    Config     217  -0.06953597  0.00483525
 Total coeff printed             0.98554504
  
State  193 33.6982     CI coeff  CI percent
    Config     160  -0.05057740  0.00255807
    Config     161  -0.05057736  0.00255807
    Config     194   0.99286332  0.98577758
    Config     220  -0.04620175  0.00213460
 Total coeff printed             0.99302832
  
State  194 33.6982     CI coeff  CI percent
    Config     162   0.05057696  0.00255803
    Config     163  -0.05057769  0.00255810
    Config     195  -0.99286335  0.98577763
    Config     219  -0.04620177  0.00213460
 Total coeff printed             0.99302837
  
State  195 33.8428     CI coeff  CI percent
    Config       4   0.06050408  0.00366074
    Config       5  -0.06050414  0.00366075
    Config      41  -0.07751624  0.00600877
    Config     114  -0.07210639  0.00519933
    Config     115  -0.07210635  0.00519933
    Config     116   0.07689739  0.00591321
    Config     117  -0.07689745  0.00591322
    Config     157  -0.14062110  0.01977429
    Config     162   0.05797364  0.00336094
    Config     163   0.05797312  0.00336088
    Config     164   0.13747576  0.01889958
    Config     188  -0.37037907  0.13718065
    Config     189   0.37038138  0.13718236
    Config     190   0.55463796  0.30762326
    Config     191  -0.55464091  0.30762654
    Config     204   0.08976128  0.00805709
    Config     205   0.08976139  0.00805711
    Config     215  -0.06757601  0.00456652
    Config     221   0.07774867  0.00604486
 Total coeff printed             0.99728943
  
State  196 34.1596     CI coeff  CI percent
    Config     196  -0.70261528  0.49366824
    Config     197   0.70261095  0.49366215
    Config     218   0.06720927  0.00451709
 Total coeff printed             0.99184747
  
State  197 34.2388     CI coeff  CI percent
    Config     173  -0.06366059  0.00405267
    Config     174  -0.06365983  0.00405257
    Config     179  -0.04162519  0.00173266
    Config     198   0.70270531  0.49379475
    Config     199   0.70268336  0.49376390
 Total coeff printed             0.99739655
  
State  198 34.4384     CI coeff  CI percent
    Config      15   0.04165430  0.00173508
    Config      25   0.04510877  0.00203480
    Config     109   0.04048174  0.00163877
    Config     147   0.06403674  0.00410070
    Config     149   0.04306165  0.00185431
    Config     150  -0.04306190  0.00185433
    Config     165  -0.06741352  0.00454458
    Config     183  -0.17849194  0.03185937
    Config     193  -0.24243964  0.05877698
    Config     196  -0.65731628  0.43206470
    Config     197  -0.65732126  0.43207124
    Config     201  -0.10052224  0.01010472
    Config     222  -0.06417407  0.00411831
 Total coeff printed             0.98675789
  
State  199 34.4384     CI coeff  CI percent
    Config      14  -0.04165427  0.00173508
    Config      24   0.04510874  0.00203480
    Config     108   0.04048170  0.00163877
    Config     148   0.06403685  0.00410072
    Config     151  -0.04306232  0.00185436
    Config     152  -0.04306132  0.00185428
    Config     166   0.06741348  0.00454458
    Config     182   0.17849143  0.03185919
    Config     192   0.24243877  0.05877656
    Config     198  -0.65730679  0.43205222
    Config     199   0.65733122  0.43208434
    Config     200   0.10052227  0.01010473
    Config     223   0.06417403  0.00411831
 Total coeff printed             0.98675792
  
State  200 36.6591     CI coeff  CI percent
    Config     166  -0.04869293  0.00237100
    Config     173   0.05897910  0.00347853
    Config     174  -0.05897919  0.00347854
    Config     192  -0.07382658  0.00545036
    Config     198   0.05364906  0.00287822
    Config     199  -0.05364925  0.00287824
    Config     200   0.98394034  0.96813859
    Config     210   0.04782741  0.00228746
    Config     211   0.04782736  0.00228746
    Config     216   0.05911770  0.00349490
 Total coeff printed             0.99674332
  
State  201 36.6591     CI coeff  CI percent
    Config     165  -0.04869285  0.00237099
    Config     175  -0.05897912  0.00347854
    Config     176  -0.05897912  0.00347854
    Config     193  -0.07382660  0.00545037
    Config     196  -0.05364906  0.00287822
    Config     197  -0.05364910  0.00287823
    Config     201   0.98394033  0.96813858
    Config     208   0.04782755  0.00228747
    Config     209  -0.04782748  0.00228747
    Config     217  -0.05911777  0.00349491
 Total coeff printed             0.99674332
  
State  202 37.2378     CI coeff  CI percent
    Config     184   0.08353982  0.00697890
    Config     185   0.08353827  0.00697864
    Config     202  -0.70081748  0.49114515
    Config     203   0.70077514  0.49108579
 Total coeff printed             0.99618848
  
State  203 37.3317     CI coeff  CI percent
    Config     172  -0.07125509  0.00507729
    Config     178   0.04609476  0.00212473
    Config     202   0.70078913  0.49110540
    Config     203   0.70083148  0.49116476
    Config     213   0.06830196  0.00466516
    Config     220   0.05177583  0.00268074
 Total coeff printed             0.99681808
  
State  204 37.3317     CI coeff  CI percent
    Config     171  -0.07125504  0.00507728
    Config     177  -0.04609474  0.00212472
    Config     204  -0.70081931  0.49114771
    Config     205   0.70080129  0.49112245
    Config     212   0.06830205  0.00466517
    Config     219   0.05177584  0.00268074
 Total coeff printed             0.99681807
  
State  205 37.5238     CI coeff  CI percent
    Config     157  -0.05549519  0.00307972
    Config     162   0.04120078  0.00169750
    Config     163   0.04120117  0.00169754
    Config     164   0.07443027  0.00553987
    Config     190   0.07366472  0.00542649
    Config     191  -0.07366474  0.00542649
    Config     204  -0.69102455  0.47751493
    Config     205  -0.69104279  0.47754013
    Config     215  -0.12190479  0.01486078
 Total coeff printed             0.99278345
  
State  206 39.2108     CI coeff  CI percent
    Config     180  -0.06907937  0.00477196
    Config     206  -0.99735853  0.99472405
 Total coeff printed             0.99949601
  
State  207 39.2108     CI coeff  CI percent
    Config     181  -0.06907946  0.00477197
    Config     207   0.99735853  0.99472403
 Total coeff printed             0.99949601
  
State  208 39.7454     CI coeff  CI percent
    Config     210   0.70452247  0.49635191
    Config     211  -0.70451334  0.49633904
    Config     226  -0.05222299  0.00272724
 Total coeff printed             0.99541820
  
State  209 39.7485     CI coeff  CI percent
    Config     208  -0.70353175  0.49495692
    Config     209  -0.70352251  0.49494392
    Config     218  -0.06301791  0.00397126
 Total coeff printed             0.99387210
  
State  210 40.1601     CI coeff  CI percent
    Config     148  -0.04364665  0.00190503
    Config     166  -0.05450984  0.00297132
    Config     182  -0.06591877  0.00434528
    Config     200   0.05208472  0.00271282
    Config     210  -0.69445731  0.48227096
    Config     211  -0.69446656  0.48228380
    Config     216   0.12470190  0.01555056
 Total coeff printed             0.99203978
  
State  211 40.1601     CI coeff  CI percent
    Config     147   0.04364664  0.00190503
    Config     165  -0.05450987  0.00297133
    Config     183  -0.06591884  0.00434529
    Config     201   0.05208489  0.00271284
    Config     208  -0.69445726  0.48227088
    Config     209   0.69446660  0.48228385
    Config     217  -0.12470188  0.01555056
 Total coeff printed             0.99203977
  
State  212 41.0157     CI coeff  CI percent
    Config     177   0.05358761  0.00287163
    Config     190  -0.04010386  0.00160832
    Config     191  -0.04010395  0.00160833
    Config     204   0.04616524  0.00213123
    Config     205  -0.04616541  0.00213124
    Config     212   0.99163677  0.98334347
 Total coeff printed             0.99369423
  
State  213 41.0157     CI coeff  CI percent
    Config     178   0.05358757  0.00287163
    Config     186   0.04010384  0.00160832
    Config     187  -0.04010389  0.00160832
    Config     202   0.04616523  0.00213123
    Config     203   0.04616530  0.00213123
    Config     213  -0.99163678  0.98334349
 Total coeff printed             0.99369423
  
State  214 41.5731     CI coeff  CI percent
    Config     169   0.04394388  0.00193106
    Config     170  -0.04394394  0.00193107
    Config     214   0.99778949  0.99558387
 Total coeff printed             0.99944601
  
State  215 42.4321     CI coeff  CI percent
    Config     157  -0.05828331  0.00339694
    Config     164   0.04153747  0.00172536
    Config     188  -0.04932792  0.00243324
    Config     189   0.04932791  0.00243324
    Config     204  -0.07742377  0.00599444
    Config     205  -0.07742393  0.00599446
    Config     215   0.98184861  0.96402669
    Config     221   0.07342671  0.00539148
 Total coeff printed             0.99139587
  
State  216 43.1364     CI coeff  CI percent
    Config     148  -0.04317357  0.00186396
    Config     192  -0.05621544  0.00316018
    Config     200   0.06160786  0.00379553
    Config     210  -0.07924590  0.00627991
    Config     211  -0.07924611  0.00627995
    Config     216  -0.98225892  0.96483258
    Config     223  -0.07326784  0.00536818
 Total coeff printed             0.99158028
  
State  217 43.1364     CI coeff  CI percent
    Config     147  -0.04317350  0.00186395
    Config     193   0.05621543  0.00316017
    Config     201  -0.06160795  0.00379554
    Config     208   0.07924585  0.00627990
    Config     209  -0.07924612  0.00627995
    Config     217  -0.98225892  0.96483259
    Config     222   0.07326783  0.00536818
 Total coeff printed             0.99158028
  
State  218 44.1013     CI coeff  CI percent
    Config     196  -0.05109800  0.00261101
    Config     197   0.05109799  0.00261100
    Config     208   0.04265363  0.00181933
    Config     209   0.04265353  0.00181932
    Config     218  -0.99501853  0.99006188
 Total coeff printed             0.99892254
  
State  219 44.6045     CI coeff  CI percent
    Config     195   0.04665197  0.00217641
    Config     219  -0.99633570  0.99268483
 Total coeff printed             0.99486123
  
State  220 44.6045     CI coeff  CI percent
    Config     194   0.04665197  0.00217641
    Config     220   0.99633570  0.99268483
 Total coeff printed             0.99486124
  
State  221 47.5126     CI coeff  CI percent
    Config     215  -0.06764933  0.00457643
    Config     221   0.99261417  0.98528288
 Total coeff printed             0.98985931
  
State  222 48.2673     CI coeff  CI percent
    Config     217   0.06738720  0.00454103
    Config     222   0.99298683  0.98602285
 Total coeff printed             0.99056389
  
State  223 48.2673     CI coeff  CI percent
    Config     216  -0.06738720  0.00454103
    Config     223   0.99298684  0.98602286
 Total coeff printed             0.99056389
  
State  224 50.7683     CI coeff  CI percent
    Config     224   0.99785172  0.99570806
 Total coeff printed             0.99570806
  
State  225 50.7683     CI coeff  CI percent
    Config     225  -0.99785172  0.99570806
 Total coeff printed             0.99570806
  
State  226 51.0017     CI coeff  CI percent
    Config     226   0.99832729  0.99665738
 Total coeff printed             0.99665738
  

 -------------------------------------------------------------------------------
 INDO CIS
 benzene



     NO PARAMETERS MARKED FOR OPTIMIZATION, SO 1SCF WAS USED  
     SCF FIELD WAS ACHIEVED                                   


                              INDO CALCULATION
                                                       MOPAC v22.0.6 MacOS
                                                       Wed Jul 12 16:25:31 2023


          COSMO AREA              =        120.08 SQUARE ANGSTROMS
          COSMO VOLUME            =        108.57 CUBIC ANGSTROMS

          IONIZATION POTENTIAL    =          8.967108 EV
          HOMO LUMO ENERGIES (EV) =         -8.967  0.842
          NO. OF FILLED LEVELS    =         15
          MOLECULAR WEIGHT        =         78.1134         POINT GROUP:  D6h 

          MOLECULAR DIMENSIONS (Angstroms)

            Atom       Atom       Distance
            H     2    H     1     4.96842
            H     4    H     3     4.30278
            H     1    H     2     0.00000


          SCF CALCULATIONS        =          1

          WALL-CLOCK TIME         =      0.598 SECONDS
          COMPUTATION TIME        =      1.142 SECONDS




   ATOM   CHEMICAL          X               Y               Z
  NUMBER   SYMBOL      (ANGSTROMS)     (ANGSTROMS)     (ANGSTROMS)

     1       H          0.00000000      2.48421200      0.00000000   
     2       H          0.00000000     -2.48421200      0.00000000   
     3       H          2.15139000      1.24210600      0.00000000   
     4       H         -2.15139000     -1.24210600      0.00000000   
     5       H         -2.15139000      1.24210600      0.00000000   
     6       H          2.15139000     -1.24210600      0.00000000   
     7       C          0.00000000      1.39679200      0.00000000   
     8       C          0.00000000     -1.39679200      0.00000000   
     9       C          1.20965700      0.69839600      0.00000000   
    10       C         -1.20965700     -0.69839600      0.00000000   
    11       C         -1.20965700      0.69839600      0.00000000   
    12       C          1.20965700     -0.69839600      0.00000000   

                             CARTESIAN COORDINATES

   1    H        0.000000000     2.484212000     0.000000000
   2    H        0.000000000    -2.484212000     0.000000000
   3    H        2.151390000     1.242106000     0.000000000
   4    H       -2.151390000    -1.242106000     0.000000000
   5    H       -2.151390000     1.242106000     0.000000000
   6    H        2.151390000    -1.242106000     0.000000000
   7    C        0.000000000     1.396792000     0.000000000
   8    C        0.000000000    -1.396792000     0.000000000
   9    C        1.209657000     0.698396000     0.000000000
  10    C       -1.209657000    -0.698396000     0.000000000
  11    C       -1.209657000     0.698396000     0.000000000
  12    C        1.209657000    -0.698396000     0.000000000


           Empirical Formula: C6 H6  =    12 atoms



      MOLECULAR POINT GROUP   :   D6h 


                  EIGENVALUES  
 -43.49916 -32.89489 -32.89489 -25.17512 -25.17511 -23.50149 -17.37600 -17.36224
 -15.23978 -15.23977 -13.36439 -12.44201 -12.44201  -8.96711  -8.96711   0.84156
   0.84156   3.18071   3.18991   4.06350   4.06350   5.24506   5.89014   5.89014
   8.46958   9.14843   9.14843  11.76953  11.76953  12.63954


              NET ATOMIC CHARGES AND DIPOLE CONTRIBUTIONS

  ATOM NO.   TYPE          CHARGE      No. of ELECS.   s-Pop       p-Pop       
    1          H           0.021615        0.9784     0.97839
    2          H           0.021615        0.9784     0.97839
    3          H           0.021615        0.9784     0.97839
    4          H           0.021615        0.9784     0.97839
    5          H           0.021615        0.9784     0.97839
    6          H           0.021615        0.9784     0.97839
    7          C          -0.021615        4.0216     1.08030     2.94131
    8          C          -0.021615        4.0216     1.08030     2.94131
    9          C          -0.021615        4.0216     1.08030     2.94131
   10          C          -0.021615        4.0216     1.08030     2.94131
   11          C          -0.021615        4.0216     1.08030     2.94131
   12          C          -0.021615        4.0216     1.08030     2.94131
 DIPOLE           X         Y         Z       TOTAL
 POINT-CHG.    -0.000    -0.000     0.000     0.000
 HYBRID         0.000     0.000     0.000     0.000
 SUM           -0.000    -0.000     0.000     0.000


          ATOMIC ORBITAL ELECTRON POPULATIONS

     Atom    s        px        py        pz   
    1  H   0.97839
    2  H   0.97839
    3  H   0.97839
    4  H   0.97839
    5  H   0.97839
    6  H   0.97839
    7  C   1.08030   0.99697   0.94434   1.00000
    8  C   1.08030   0.99697   0.94434   1.00000
    9  C   1.08030   0.95750   0.98382   1.00000
   10  C   1.08030   0.95750   0.98382   1.00000
   11  C   1.08030   0.95750   0.98382   1.00000
   12  C   1.08030   0.95750   0.98382   1.00000

 **********************
 *                    *
 * JOB ENDED NORMALLY *
 *                    *
 **********************



 TOTAL JOB TIME:             0.64 SECONDS

 == MOPAC DONE ==
