 *******************************************************************************
 **                                                                           **
 **                              MOPAC v22.0.6                                **
 **                                                                           **
 *******************************************************************************
 **          Digital Object Identifier (DOI): 10.5281/zenodo.6511958          **
 **    Visit the DOI location for information on how to cite this program.    **
 *******************************************************************************

                              INDO CALCULATION RESULTS

 *******************************************************************************
 *  CALCULATION DONE:                                Mon May 15 10:16:30 2023  *
 *  INDO       - The INDO Hamiltonian to be used
 *  CISD       - C.I. USES 1 AND 2 ELECTRON EXCITATIONS
 * C.I.D.=(N,M)- 1 DOUBLY FILLED LEVELS USED IN A CI DOUBLES INVOLVING 3 M.O.'S
 *  C.I.=(N,M) - 3 DOUBLY FILLED LEVELS USED IN A C.I. INVOLVING 6 M.O.'S
 *  EPS=20.0   - USE ANDREAS KLAMT'S COSMO IMPLICIT SOLVATION MODEL
 *  N**2=2.5   - USED IN COSMO-CI
 *  T=         - A TIME OF 172800.0 SECONDS REQUESTED
 *  DUMP=N     - RESTART FILE WRITTEN EVERY 7200.0 SECONDS REQUESTED
 *******************************************************************************
INDO CISD C.I.=(6,3) C.I.D.=(3,1) EPS=20.0 N**2=2.5
 Carbon Monoxide
 INDO
   ATOM   CHEMICAL          X               Y               Z
  NUMBER   SYMBOL      (ANGSTROMS)     (ANGSTROMS)     (ANGSTROMS)

     1       C          0.00000000      0.00000000      0.00000000   
     2       O          1.17300000      0.00000000      0.00000000   



          CARTESIAN COORDINATES 

    NO.       ATOM           X           Y           Z

     1         C          0.0000      0.0000      0.0000
     2         O          1.1730      0.0000      0.0000

           Empirical Formula: C O  =     2 atoms



      MOLECULAR POINT GROUP   :   C*v 


      RHF CALCULATION, NO. OF DOUBLY OCCUPIED LEVELS = 5

 WARNING: INDO only performs single-point calculations

 Summary of symmetry occupancy in each shell:

 SHELL     
    1    5
    v    3
 TOTAL   8


                     MOLECULAR ORBITALS 






    ROOT NO.    1           2           3           4           5           6

           -43.14527   -19.34695   -14.87322   -14.87226   -14.51064     0.10937
  
  
  S  C   1   0.44067    -0.58014    -0.00000    -0.00000     0.61050     0.00000
 PX  C   1   0.36235     0.01059     0.00000     0.00000    -0.61007     0.00000
 PY  C   1  -0.00000    -0.00000     0.00000     0.47913     0.00000    -0.00000
 PZ  C   1  -0.00000    -0.00000     0.47911    -0.00000     0.00000     0.87775
  
  S  O   2   0.77935     0.52897    -0.00000    -0.00000     0.10284    -0.00000
 PX  O   2  -0.25907     0.61928     0.00000     0.00000     0.49450    -0.00000
 PY  O   2   0.00000    -0.00000     0.00000     0.87775    -0.00000     0.00000
 PZ  O   2   0.00000    -0.00000     0.87775    -0.00000    -0.00000    -0.47911




    ROOT NO.    7           8

             0.11016    10.45157
  
  
  S  C   1   0.00000     0.31071
 PX  C   1   0.00000     0.70455
 PY  C   1   0.87775    -0.00000
 PZ  C   1   0.00000    -0.00000
  
  S  O   2  -0.00000    -0.31972
 PX  O   2  -0.00000     0.55212
 PY  O   2  -0.47913    -0.00000
 PZ  O   2  -0.00000    -0.00000


 Reference determinate nber   1 is ALPHA 1 -   5
 SINGLE excitations FROM orbs   3 to   5 INTO orbs   6 to   8
 DOUBLE excitations FROM orbs   5 to   5 INTO orbs   6 to   7


 CI excitations=   31:        = 31
 The lowest   31 spin-adapted configurations of multiplicity=  1
     sym   eV   cm**-1 -dets- dipole oscilator X FRAG ....Excitations named from first reference determinate
                       tot  #  Debye  strength

   1      0.005      0.  1  1  0.6697 0.000000 0  0 (        )->(           )
   2      6.928  55839.  2  1  2.0434 0.067089 1  1 (   5    )->(   6       )
   3      6.929  55846.  2  1  2.0435 0.067095 1  1 (   5    )->(   7       )
   4      7.080  57059.  2  1  2.3776 0.000000 1  1 (   4    )->(   6       )
   5      7.081  57073.  2  1  2.3776 0.000000 1  1 (   3    )->(   7       )
   6     10.596  85417.  2  1  2.3775 0.450949 1  1 (   4    )->(   7       )
   7     10.596  85417.  2  1  2.3776 0.450934 1  1 (   3    )->(   6       )
   8     13.411 108121.  6  1  1.0038 0.000000 2  1 (   4   5)->(   6   7   )
   9     13.412 108129.  6  1  1.0039 0.000000 2  1 (   3   5)->(   6   7   )
  10     13.990 112791.  2  1  3.4171 0.000000 2  1 (   5   5)->(   6   7   )
  11     14.118 113825.  2  1  1.0039 0.000000 2  1 (   4   5)->(   6   6   )
  12     14.120 113845.  2  1  1.0038 0.000000 2  1 (   3   5)->(   7   7   )
  13     14.354 115728.  1  1  3.4170 0.000000 2  0 (   5   5)->(   6   6   )
  14     14.355 115741.  1  1  3.4172 0.000000 2  0 (   5   5)->(   7   7   )
  15     15.150 122148.  2  1  1.0040 0.000000 2  1 (   3   5)->(   6   6   )
  16     15.150 122152.  2  1  1.0038 0.000000 2  1 (   4   5)->(   7   7   )
  17     17.494 141059.  2  1  0.9584 0.001799 1  1 (   4    )->(   8       )
  18     17.495 141066.  2  1  0.9584 0.001800 1  1 (   3    )->(   8       )
  19     17.763 143225.  6  2  1.0038 0.000000 2  1 (   4   5)->(   6   7   )
  20     17.764 143231.  6  2  1.0039 0.000000 2  1 (   3   5)->(   6   7   )
  21     18.404 148397.  2  1  3.4626 0.418966 1  1 (   5    )->(   8       )
  22     24.244 195502.  6  1  0.4153 0.000000 2  1 (   4   5)->(   7   8   )
  23     24.245 195504.  6  1  0.4152 0.000000 2  1 (   3   5)->(   6   8   )
  24     24.352 196374.  6  1  0.4153 0.000000 2  1 (   4   5)->(   6   8   )
  25     24.354 196388.  6  1  0.4153 0.000000 2  1 (   3   5)->(   7   8   )
  26     25.272 203788.  6  2  0.4153 0.000000 2  1 (   4   5)->(   6   8   )
  27     25.273 203802.  6  2  0.4153 0.000000 2  1 (   3   5)->(   7   8   )
  28     26.043 210010.  2  1  4.8362 0.000000 2  1 (   5   5)->(   6   8   )
  29     26.044 210017.  2  1  4.8363 0.000000 2  1 (   5   5)->(   7   8   )
  30     28.412 229117.  6  2  0.4153 0.000000 2  1 (   4   5)->(   7   8   )
  31     28.412 229117.  6  2  0.4152 0.000000 2  1 (   3   5)->(   6   8   )
 
 COSMO corrections to state energies
 State    Diag E (eV)   Uncorr E (eV)   Final E (eV)
     1       -0.34258       -0.34161       -0.34162
     2        6.49820        6.65810        6.51890
     3        6.86255        6.87767        6.86313
     4        6.86319        6.87846        6.86376
     5        6.94827        7.10754        6.96945
     6        6.96660        7.10753        6.96947
     7       12.15905       12.27656       12.19476
     8       13.15718       13.34246       13.16910
     9       13.15721       13.34292       13.16914
    10       13.32039       13.51152       13.33808
    11       13.32040       13.51155       13.33808
    12       13.96576       14.02443       13.99443
    13       13.99375       14.02443       13.99443
    14       14.24562       14.45539       14.27064
    15       14.24564       14.45408       14.27065
    16       14.74152       14.79872       14.77080
    17       17.43115       17.49844       17.43182
    18       17.43154       17.49941       17.43221
    19       18.55841       18.73065       18.57091
    20       18.55848       18.72989       18.57098
    21       19.65261       19.68996       19.68987
    22       24.06918       24.14221       24.07438
    23       24.22014       24.31321       24.24075
    24       24.23870       24.31322       24.24075
    25       24.33138       24.42475       24.35205
    26       25.28813       25.38135       25.30877
    27       25.39953       25.49304       25.42022
    28       25.41809       25.49304       25.42022
    29       26.46830       26.49372       26.47965
    30       26.46908       26.49454       26.48044
    31       32.04452       32.11873       32.04754

 Depression of ground-state after CI=      -2755. cm**-1 Energy=   190.4900905 eV
 Dipole moment= -0.624113  0.000000  0.000000 tot=  0.624113 Debyes


  CI trans.  energy frequency wavelength oscillator--------- polarization---------  dipole  ------ components-----
 st.  symm.    eV      cm - 1       nm      strength       x          y         z       moment     x       y       z 

   2      6.8605207    55334.    180.72  0.000000                                   1.865811   1.866  -0.000  -0.000
   3      7.2047462    58110.    172.09  0.061587  -0.000000  -0.000000  -1.000000  2.025840  -2.026   0.000   0.000
   4      7.2053775    58115.    172.07  0.061591   0.000000   1.000000  -0.000000  2.025837  -2.026   0.000   0.000
   5      7.3110646    58968.    169.58  0.000000                                   1.839216   1.839  -0.000  -0.000
   6      7.3110906    58968.    169.58  0.000000                                   1.838866   1.839  -0.000   0.000
   7     12.5363803   101113.     98.90  0.497388   1.000000  -0.000000  -0.000000  1.134303   1.134  -0.000  -0.000
   8     13.5107201   108972.     91.77  0.000255   0.000000  -0.000000   1.000000  0.949191   0.949  -0.000  -0.000
   9     13.5107560   108972.     91.77  0.000255  -0.000000  -1.000000  -0.000000  0.949172   0.949  -0.000  -0.000
  10     13.6797032   110335.     90.63  0.000000   0.000000   1.000000   0.000000  1.003654   1.004  -0.000  -0.000
  11     13.6797035   110335.     90.63  0.000000   0.000000  -0.000000   1.000000  1.003644   1.004  -0.000  -0.000
  12     14.3360447   115628.     86.48  0.000000                                   3.389912  -3.390   0.000   0.000
  13     14.3360518   115628.     86.48  0.000000                                   3.389566  -3.390   0.000   0.000
  14     14.6122567   117856.     84.85  0.000566  -0.000000   0.000000  -1.000000  1.001384   1.001  -0.000  -0.000
  15     14.6122711   117856.     84.85  0.000566   0.000000   1.000000   0.000000  1.001375   1.001  -0.000  -0.000
  16     15.1124168   121890.     82.04  0.002932   1.000000  -0.000000  -0.000000  3.368788  -3.369   0.000   0.000
  17     17.7734354   143353.     69.76  0.002803  -0.000000  -1.000000  -0.000000  0.949038   0.949  -0.000   0.000
  18     17.7738249   143356.     69.76  0.002804   0.000000  -0.000000   1.000000  0.949109   0.949   0.000  -0.000
  19     18.9125310   152540.     65.56  0.001150   0.000000   1.000000  -0.000000  0.915994   0.916  -0.000  -0.000
  20     18.9125993   152541.     65.56  0.001150  -0.000000  -0.000000  -1.000000  0.915977   0.916  -0.000  -0.000
  21     20.0314842   161565.     61.89  1.049416   1.000000  -0.000000  -0.000000  2.184289  -2.184   0.000   0.000
  22     24.4159966   196929.     50.78  0.022290   1.000000  -0.000000  -0.000000  0.564484  -0.564   0.000   0.000
  23     24.5823711   198271.     50.44  0.000000                                   0.320891  -0.321  -0.000  -0.000
  24     24.5823722   198271.     50.44  0.000000                                   0.320891  -0.321  -0.000  -0.000
  25     24.6936642   199168.     50.21  0.000000                                   0.098969  -0.099  -0.000  -0.000
  26     25.6503876   206885.     48.34  0.000000                                   0.219832  -0.220  -0.000  -0.000
  27     25.7618362   207784.     48.13  0.000000                                   0.001499   0.001  -0.000  -0.000
  28     25.7618365   207784.     48.13  0.000000                                   0.001496   0.001  -0.000  -0.000
  29     26.8212726   216329.     46.23  0.000374  -0.000000  -0.000000  -1.000000  4.699124  -4.699   0.000   0.000
  30     26.8220575   216335.     46.22  0.000373   0.000000   1.000000  -0.000000  4.699275  -4.699   0.000   0.000
  31     32.3891553   261237.     38.28  0.009109   1.000000  -0.000000  -0.000000  0.395021  -0.395   0.000   0.000

 Polarizability (au  ) xx=   12.97 xy=   -0.00 yy=    2.67 xz=   -0.00 yz=    0.00 zz=    2.67
 Polarizability (A**3) xx=    1.92 xy=   -0.00 yy=    0.40 xz=   -0.00 yz=    0.00 zz=    0.40


 Major CI contributions to CI states

State    1  0.0000     CI coeff  CI percent
    Config       1  -0.99277849  0.98560913
    Config      13   0.05718933  0.00327062
    Config      14   0.05718472  0.00327009
    Config      30   0.06180635  0.00382003
    Config      31   0.06180507  0.00381987
 Total coeff printed             0.99978974
  
State    2  6.8605     CI coeff  CI percent
    Config       4   0.70379018  0.49532061
    Config       5  -0.70343314  0.49481819
    Config      24  -0.04714761  0.00222290
    Config      25   0.04712198  0.00222048
    Config      26   0.05206065  0.00271031
    Config      27  -0.05203376  0.00270751
 Total coeff printed             1.00000000
  
State    3  7.2047     CI coeff  CI percent
    Config       2   0.99741226  0.99483122
    Config       8  -0.04437909  0.00196950
 Total coeff printed             0.99680072
  
State    4  7.2054     CI coeff  CI percent
    Config       3  -0.99741186  0.99483043
    Config       9   0.04438399  0.00196994
 Total coeff printed             0.99680036
  
State    5  7.3111     CI coeff  CI percent
    Config       4   0.70170414  0.49238870
    Config       5   0.70206231  0.49289148
    Config      10  -0.06982541  0.00487559
    Config      24  -0.04704860  0.00221357
    Config      25  -0.04707085  0.00221567
    Config      26   0.05202059  0.00270614
    Config      27   0.05204661  0.00270885
 Total coeff printed             1.00000000
  
State    6  7.3111     CI coeff  CI percent
    Config       6   0.70185128  0.49259521
    Config       7  -0.70186917  0.49262033
    Config      13  -0.04970560  0.00247065
    Config      14   0.04969923  0.00247001
    Config      30  -0.06982688  0.00487579
    Config      31   0.06983104  0.00487637
 Total coeff printed             0.99990838
  
State    7 12.5364     CI coeff  CI percent
    Config       6  -0.63318847  0.40092763
    Config       7  -0.63316782  0.40090149
    Config      13  -0.08724843  0.00761229
    Config      14  -0.08721071  0.00760571
    Config      21   0.41415915  0.17152780
    Config      30   0.07094526  0.00503323
    Config      31   0.07094696  0.00503347
 Total coeff printed             0.99864162
  
State    8 13.5107     CI coeff  CI percent
    Config       2  -0.05670909  0.00321592
    Config       8  -0.72770537  0.52955510
    Config      12  -0.35462575  0.12575942
    Config      15   0.50964371  0.25973671
    Config      19   0.28500656  0.08122874
 Total coeff printed             0.99949590
  
State    9 13.5108     CI coeff  CI percent
    Config       3   0.05671726  0.00321685
    Config       9   0.72746692  0.52920813
    Config      11  -0.35474190  0.12584181
    Config      16   0.50983519  0.25993192
    Config      20   0.28512649  0.08129711
 Total coeff printed             0.99949582
  
State   10 13.6797     CI coeff  CI percent
    Config       9  -0.67758674  0.45912379
    Config      11  -0.49323091  0.24327673
    Config      16   0.46088367  0.21241376
    Config      20   0.29183911  0.08517007
 Total coeff printed             0.99998435
  
State   11 13.6797     CI coeff  CI percent
    Config       8  -0.67732929  0.45877497
    Config      12   0.49342221  0.24346548
    Config      15  -0.46101126  0.21253138
    Config      19  -0.29191205  0.08521264
 Total coeff printed             0.99998447
  
State   12 14.3360     CI coeff  CI percent
    Config       4  -0.04938930  0.00243930
    Config       5  -0.04938987  0.00243936
    Config      10  -0.99755233  0.99511066
 Total coeff printed             0.99998932
  
State   13 14.3361     CI coeff  CI percent
    Config       6  -0.04966664  0.00246677
    Config       7   0.04976389  0.00247644
    Config      13  -0.70577269  0.49811510
    Config      14   0.70493304  0.49693059
 Total coeff printed             0.99998890
  
State   14 14.6123     CI coeff  CI percent
    Config       8   0.09567930  0.00915453
    Config      12   0.79163693  0.62668904
    Config      15   0.52815114  0.27894362
    Config      18  -0.07301963  0.00533187
    Config      19   0.28240854  0.07975458
 Total coeff printed             0.99987363
  
State   15 14.6123     CI coeff  CI percent
    Config       9  -0.09566773  0.00915232
    Config      11   0.79170337  0.62679423
    Config      16   0.52807683  0.27886514
    Config      17   0.07302876  0.00533320
    Config      20   0.28236284  0.07972877
 Total coeff printed             0.99987366
  
State   16 15.1124     CI coeff  CI percent
    Config       1  -0.08162174  0.00666211
    Config       6   0.04654077  0.00216604
    Config       7   0.04648534  0.00216089
    Config      13  -0.69485337  0.48282120
    Config      14  -0.69570930  0.48401144
    Config      21  -0.14843112  0.02203180
 Total coeff printed             0.99985348
  
State   17 17.7734     CI coeff  CI percent
    Config      11   0.05725866  0.00327855
    Config      17  -0.99651741  0.99304695
 Total coeff printed             0.99632551
  
State   18 17.7738     CI coeff  CI percent
    Config      12   0.05724971  0.00327753
    Config      18   0.99651795  0.99304802
 Total coeff printed             0.99632555
  
State   19 18.9125     CI coeff  CI percent
    Config      16   0.48072266  0.23109428
    Config      20  -0.84688672  0.71721712
    Config      29   0.22323591  0.04983427
 Total coeff printed             0.99814567
  
State   20 18.9126     CI coeff  CI percent
    Config      15   0.48071900  0.23109076
    Config      19  -0.84688150  0.71720827
    Config      28  -0.22326269  0.04984623
 Total coeff printed             0.99814526
  
State   21 20.0315     CI coeff  CI percent
    Config       6  -0.30346307  0.09208983
    Config       7  -0.30345552  0.09208526
    Config      13   0.07495561  0.00561834
    Config      14   0.07496893  0.00562034
    Config      21  -0.88345992  0.78050144
    Config      22   0.10967408  0.01202840
    Config      23   0.10967021  0.01202756
 Total coeff printed             0.99997117
  
State   22 24.4160     CI coeff  CI percent
    Config      21  -0.15263736  0.02329816
    Config      22  -0.69697872  0.48577934
    Config      23  -0.69685408  0.48560560
    Config      30  -0.04268865  0.00182232
    Config      31  -0.04271100  0.00182423
 Total coeff printed             0.99832966
  
State   23 24.5824     CI coeff  CI percent
    Config      24   0.67667595  0.45789034
    Config      25   0.67333247  0.45337662
    Config      26   0.20834368  0.04340709
    Config      27   0.20870423  0.04355745
 Total coeff printed             0.99823150
  
State   24 24.5824     CI coeff  CI percent
    Config      22   0.66621238  0.44383893
    Config      23  -0.66633637  0.44400416
    Config      30  -0.23493829  0.05519600
    Config      31   0.23493073  0.05519245
 Total coeff printed             0.99823154
  
State   25 24.6937     CI coeff  CI percent
    Config       4   0.05486000  0.00300962
    Config       5  -0.05498416  0.00302326
    Config      24   0.69440352  0.48219624
    Config      25  -0.69756822  0.48660142
    Config      26  -0.11275909  0.01271461
    Config      27   0.11160130  0.01245485
 Total coeff printed             1.00000000
  
State   26 25.6504     CI coeff  CI percent
    Config       4   0.04390733  0.00192785
    Config       5  -0.04359439  0.00190047
    Config      24  -0.11509086  0.01324591
    Config      25   0.11624572  0.01351307
    Config      26  -0.69779925  0.48692379
    Config      27   0.69461422  0.48248891
 Total coeff printed             1.00000000
  
State   27 25.7618     CI coeff  CI percent
    Config       6   0.06354218  0.00403761
    Config       7  -0.06354887  0.00403846
    Config      22   0.23670266  0.05602815
    Config      23  -0.23672165  0.05603714
    Config      30   0.66326108  0.43991526
    Config      31  -0.66327449  0.43993304
 Total coeff printed             0.99998965
  
State   28 25.7618     CI coeff  CI percent
    Config       4   0.06343369  0.00402383
    Config       5   0.06365648  0.00405215
    Config      24   0.20549718  0.04222909
    Config      25   0.20511170  0.04207081
    Config      26  -0.67196329  0.45153466
    Config      27  -0.67533623  0.45607903
 Total coeff printed             0.99998957
  
State   29 26.8213     CI coeff  CI percent
    Config      15   0.12759627  0.01628081
    Config      19  -0.18513517  0.03427503
    Config      28   0.97300634  0.94674133
 Total coeff printed             0.99729717
  
State   30 26.8221     CI coeff  CI percent
    Config      16   0.12758394  0.01627766
    Config      20  -0.18511099  0.03426608
    Config      29  -0.97301263  0.94675357
 Total coeff printed             0.99729731
  
State   31 32.3892     CI coeff  CI percent
    Config       1  -0.08699615  0.00756833
    Config       6  -0.06312644  0.00398495
    Config       7  -0.06312777  0.00398512
    Config      21   0.05084018  0.00258472
    Config      30  -0.69951660  0.48932348
    Config      31  -0.69950458  0.48930665
 Total coeff printed             0.99675325
  

 -------------------------------------------------------------------------------
 INDO CISD C.I.=(6,3) C.I.D.=(3,1) EPS=20.0 N**2=2.5
 Carbon Monoxide
 INDO


     NO PARAMETERS MARKED FOR OPTIMIZATION, SO 1SCF WAS USED  
     SCF FIELD WAS ACHIEVED                                   


                              INDO CALCULATION
                                                       MOPAC v22.0.6 MacOS
                                                       Mon May 15 10:16:30 2023
          VAN DER WAALS AREA      =         57.92 SQUARE ANGSTROMS



          DIELECTRIC ENERGY       =         -0.07380 EV
          COSMO AREA              =         57.92 SQUARE ANGSTROMS
          COSMO VOLUME            =         40.40 CUBIC ANGSTROMS

          IONIZATION POTENTIAL    =         14.510645 EV
          HOMO LUMO ENERGIES (EV) =        -14.511  0.109
          NO. OF FILLED LEVELS    =          5
          MOLECULAR WEIGHT        =         28.0104         POINT GROUP:  C*v 

          MOLECULAR DIMENSIONS (Angstroms)

            Atom       Atom       Distance
            O     2    C     1     1.17300
            O     2    C     1     0.00000
            C     1    O     2     0.00000


          SCF CALCULATIONS        =          2

          WALL-CLOCK TIME         =      0.059 SECONDS
          COMPUTATION TIME        =      0.057 SECONDS




   ATOM   CHEMICAL          X               Y               Z
  NUMBER   SYMBOL      (ANGSTROMS)     (ANGSTROMS)     (ANGSTROMS)

     1       C          0.00000000      0.00000000      0.00000000   
     2       O          1.17300000      0.00000000      0.00000000   

                             CARTESIAN COORDINATES

   1    C        0.000000000     0.000000000     0.000000000
   2    O        1.173000000     0.000000000     0.000000000


           Empirical Formula: C O  =     2 atoms



      MOLECULAR POINT GROUP   :   C*v 


                  EIGENVALUES  
 -43.14527 -19.34695 -14.87322 -14.87226 -14.51064   0.10937   0.11016  10.45157


              NET ATOMIC CHARGES AND DIPOLE CONTRIBUTIONS

  ATOM NO.   TYPE          CHARGE      No. of ELECS.   s-Pop       p-Pop       
    1          C           0.266643        3.7334     1.80694     1.92642
    2          O          -0.266643        6.2666     1.79552     4.47113
 DIPOLE           X         Y         Z       TOTAL
 POINT-CHG.    -1.502     0.000     0.000     1.502
 HYBRID         0.838    -0.000    -0.000     0.838
 SUM           -0.665    -0.000    -0.000     0.665


          ATOMIC ORBITAL ELECTRON POPULATIONS

     Atom    s        px        py        pz   
    1  C   1.80694   1.00747   0.45948   0.45946
    2  O   1.79552   1.39007   1.54052   1.54054

 **********************
 *                    *
 * JOB ENDED NORMALLY *
 *                    *
 **********************



 TOTAL JOB TIME:             0.10 SECONDS

 == MOPAC DONE ==
