 *******************************************************************************
 **                                                                           **
 **                              MOPAC v22.0.6                                **
 **                                                                           **
 *******************************************************************************
 **          Digital Object Identifier (DOI): 10.5281/zenodo.6511958          **
 **    Visit the DOI location for information on how to cite this program.    **
 *******************************************************************************

                              INDO CALCULATION RESULTS

 *******************************************************************************
 *  CALCULATION DONE:                                Wed Jul 12 16:25:35 2023  *
 *  INDO       - The INDO Hamiltonian to be used
 *  MRCI       -  Use multi-reference CI (specify ref dets using C.A.S.)
 * C.A.S.=(N,M)-  1 DOUBLY FILLED LEVELS USED IN A
 *             CAS REF DET GENERATION INVOLVING  3 M.O.'S
 *  EPS=20.0   - USE ANDREAS KLAMT'S COSMO IMPLICIT SOLVATION MODEL
 *  T=         - A TIME OF 172800.0 SECONDS REQUESTED
 *  DUMP=N     - RESTART FILE WRITTEN EVERY 7200.0 SECONDS REQUESTED
 *******************************************************************************
INDO MRCI C.A.S.=(3,1) EPS=20.0
 Carbon Monoxide
 INDO
   ATOM   CHEMICAL          X               Y               Z
  NUMBER   SYMBOL      (ANGSTROMS)     (ANGSTROMS)     (ANGSTROMS)

     1       C          0.00000000      0.00000000      0.00000000   
     2       O          1.17300000      0.00000000      0.00000000   



          CARTESIAN COORDINATES 

    NO.       ATOM           X           Y           Z

     1         C          0.0000      0.0000      0.0000
     2         O          1.1730      0.0000      0.0000

           Empirical Formula: C O  =     2 atoms



      MOLECULAR POINT GROUP   :   C*v 


      RHF CALCULATION, NO. OF DOUBLY OCCUPIED LEVELS = 5

 WARNING: INDO only performs single-point calculations

 Summary of symmetry occupancy in each shell:

 SHELL     
    1    5
    v    3
 TOTAL   8


                     MOLECULAR ORBITALS 






    ROOT NO.    1           2           3           4           5           6

           -43.14527   -19.34695   -14.87322   -14.87226   -14.51064     0.10937
  
  
  S  C   1   0.44067    -0.58014    -0.00000    -0.00000     0.61050     0.00000
 PX  C   1   0.36235     0.01059     0.00000     0.00000    -0.61007     0.00000
 PY  C   1  -0.00000    -0.00000     0.00000     0.47913     0.00000     0.00000
 PZ  C   1  -0.00000    -0.00000     0.47911    -0.00000     0.00000     0.87775
  
  S  O   2   0.77935     0.52897    -0.00000    -0.00000     0.10284    -0.00000
 PX  O   2  -0.25907     0.61928     0.00000     0.00000     0.49450    -0.00000
 PY  O   2   0.00000    -0.00000     0.00000     0.87775    -0.00000    -0.00000
 PZ  O   2   0.00000    -0.00000     0.87775    -0.00000    -0.00000    -0.47911




    ROOT NO.    7           8

             0.11016    10.45157
  
  
  S  C   1   0.00000     0.31071
 PX  C   1   0.00000     0.70455
 PY  C   1   0.87775    -0.00000
 PZ  C   1  -0.00000    -0.00000
  
  S  O   2  -0.00000    -0.31972
 PX  O   2  -0.00000     0.55212
 PY  O   2  -0.47913    -0.00000
 PZ  O   2   0.00000    -0.00000


 Reference determinate nber   1 is ALPHA 1 -   5
 CAS excitations amongst orbitals:   5   6   7
 SINGLE excitations FROM orbs   1 to   5 INTO orbs   6 to   8


 CI excitations=   77:        = 77
 The lowest   77 spin-adapted configurations of multiplicity=  1
     sym   eV   cm**-1 -dets- dipole oscilator X FRAG ....Excitations named from first reference determinate
                       tot  #  Debye  strength

   1      0.005      0.  1  1  0.6697 0.000000 0  0 (            )->(               )
   2      6.928  55839.  2  1  2.0434 0.067089 1  1 (   5        )->(   6           )
   3      6.929  55846.  2  1  2.0435 0.067095 1  1 (   5        )->(   7           )
   4      7.080  57059.  2  1  2.3776 0.000000 1  1 (   4        )->(   6           )
   5      7.081  57073.  2  1  2.3776 0.000000 1  1 (   3        )->(   7           )
   6     10.596  85417.  2  1  2.3775 0.450949 1  1 (   4        )->(   7           )
   7     10.596  85417.  2  1  2.3776 0.450934 1  1 (   3        )->(   6           )
   8     12.589 101498.  2  1  2.8028 0.231777 1  1 (   2        )->(   6           )
   9     12.590 101504.  2  1  2.8027 0.231792 1  1 (   2        )->(   7           )
  10     13.411 108121.  6  1  1.0038 0.000000 2  1 (   4   5    )->(   6   7       )
  11     13.412 108129.  6  1  1.0039 0.000000 2  1 (   3   5    )->(   6   7       )
  12     13.990 112791.  2  1  3.4171 0.000000 2  1 (   5   5    )->(   6   7       )
  13     14.118 113825.  2  1  1.0039 0.000000 2  1 (   4   5    )->(   6   6       )
  14     14.120 113845.  2  1  1.0038 0.000000 2  1 (   3   5    )->(   7   7       )
  15     14.354 115728.  1  1  3.4170 0.000000 2  0 (   5   5    )->(   6   6       )
  16     14.355 115741.  1  1  3.4172 0.000000 2  0 (   5   5    )->(   7   7       )
  17     15.150 122148.  2  1  1.0040 0.000000 2  1 (   3   5    )->(   6   6       )
  18     15.150 122152.  2  1  1.0038 0.000000 2  1 (   4   5    )->(   7   7       )
  19     17.494 141059.  2  1  0.9584 0.001799 1  1 (   4        )->(   8           )
  20     17.495 141066.  2  1  0.9584 0.001800 1  1 (   3        )->(   8           )
  21     17.763 143225.  6  2  1.0038 0.000000 2  1 (   4   5    )->(   6   7       )
  22     17.764 143231.  6  2  1.0039 0.000000 2  1 (   3   5    )->(   6   7       )
  23     18.404 148397.  2  1  3.4626 0.418966 1  1 (   5        )->(   8           )
  24     19.159 154487.  6  1  1.4291 0.000000 2  1 (   2   5    )->(   6   7       )
  25     20.762 167413.  6  2  1.4291 0.000000 2  1 (   2   5    )->(   6   7       )
  26     21.126 170350.  2  1  1.4292 0.000000 2  1 (   2   5    )->(   6   6       )
  27     21.127 170363.  2  1  1.4290 0.000000 2  1 (   2   5    )->(   7   7       )
  28     22.914 184769.  2  1  0.3699 0.000000 3  1 (   4   5   5)->(   6   7   7   )
  29     22.914 184771.  2  1  0.3697 0.000000 3  1 (   3   5   5)->(   6   6   7   )
  30     23.084 186142.  2  1  1.3836 0.007709 1  1 (   2        )->(   8           )
  31     24.244 195502.  6  1  0.4153 0.000000 2  1 (   4   5    )->(   7   8       )
  32     24.245 195504.  6  1  0.4152 0.000000 2  1 (   3   5    )->(   6   8       )
  33     24.352 196374.  6  1  0.4153 0.000000 2  1 (   4   5    )->(   6   8       )
  34     24.354 196388.  6  1  0.4153 0.000000 2  1 (   3   5    )->(   7   8       )
  35     25.272 203788.  6  2  0.4153 0.000000 2  1 (   4   5    )->(   6   8       )
  36     25.273 203802.  6  2  0.4153 0.000000 2  1 (   3   5    )->(   7   8       )
  37     25.397 204801.  2  1  0.3698 0.000000 3  1 (   4   5   5)->(   6   6   7   )
  38     25.399 204813.  2  1  0.3698 0.000000 3  1 (   3   5   5)->(   6   7   7   )
  39     26.043 210010.  2  1  4.8362 0.000000 2  1 (   5   5    )->(   6   8       )
  40     26.044 210017.  2  1  4.8363 0.000000 2  1 (   5   5    )->(   7   8       )
  41     27.032 217982.  2  1  0.0555 0.000000 3  1 (   2   5   5)->(   6   6   7   )
  42     27.032 217988.  2  1  0.0554 0.000000 3  1 (   2   5   5)->(   6   7   7   )
  43     28.412 229117.  6  2  0.4153 0.000000 2  1 (   4   5    )->(   7   8       )
  44     28.412 229117.  6  2  0.4152 0.000000 2  1 (   3   5    )->(   6   8       )
  45     30.275 244144.  6  1  0.0100 0.000000 2  1 (   2   5    )->(   6   8       )
  46     30.276 244150.  6  1  0.0099 0.000000 2  1 (   2   5    )->(   7   8       )
  47     32.150 259264.  6  2  0.0100 0.000000 2  1 (   2   5    )->(   6   8       )
  48     32.151 259270.  6  2  0.0099 0.000000 2  1 (   2   5    )->(   7   8       )
  49     32.430 261522.  6  1  1.7890 0.000000 3  1 (   4   5   5)->(   6   7   8   )
  50     32.431 261530.  6  1  1.7889 0.000000 3  1 (   3   5   5)->(   6   7   8   )
  51     33.393 269292.  2  1  1.7889 0.000000 3  1 (   4   5   5)->(   6   6   8   )
  52     33.396 269312.  2  1  1.7890 0.000000 3  1 (   3   5   5)->(   7   7   8   )
  53     34.425 277614.  2  1  1.7888 0.000000 3  1 (   3   5   5)->(   6   6   8   )
  54     34.426 277619.  2  1  1.7891 0.000000 3  1 (   4   5   5)->(   7   7   8   )
  55     36.236 292217.  6  2  1.7890 0.000000 3  1 (   4   5   5)->(   6   7   8   )
  56     36.236 292224.  6  2  1.7889 0.000000 3  1 (   3   5   5)->(   6   7   8   )
  57     36.483 294214.  2  1  1.9069 0.020336 1  1 (   1        )->(   6           )
  58     36.484 294221.  2  1  1.9068 0.020332 1  1 (   1        )->(   7           )
  59     38.258 308533.  6  1  1.3637 0.000000 3  1 (   2   5   5)->(   6   7   8   )
  60     38.622 311470.  2  1  1.3636 0.000000 3  1 (   2   5   5)->(   6   6   8   )
  61     38.624 311482.  2  1  1.3638 0.000000 3  1 (   2   5   5)->(   7   7   8   )
  62     38.698 312076.  6  2  1.3637 0.000000 3  1 (   2   5   5)->(   6   7   8   )
  63     41.934 338183.  6  1  0.5332 0.000000 2  1 (   1   5    )->(   6   7       )
  64     42.299 341120.  2  1  0.5333 0.000000 2  1 (   1   5    )->(   6   6       )
  65     42.300 341132.  2  1  0.5331 0.000000 2  1 (   1   5    )->(   7   7       )
  66     43.688 352327.  6  2  0.5332 0.000000 2  1 (   1   5    )->(   6   7       )
  67     49.779 401451.  2  1  0.4877 0.068898 1  1 (   1        )->(   8           )
  68     50.518 407410.  2  1  0.8405 0.000000 3  1 (   1   5   5)->(   6   6   7   )
  69     50.518 407416.  2  1  0.8405 0.000000 3  1 (   1   5   5)->(   6   7   7   )
  70     51.962 419064.  6  1  0.8859 0.000000 2  1 (   1   5    )->(   6   8       )
  71     51.963 419071.  6  1  0.8860 0.000000 2  1 (   1   5    )->(   7   8       )
  72     57.200 461311.  6  2  0.8859 0.000000 2  1 (   1   5    )->(   6   8       )
  73     57.201 461317.  6  2  0.8860 0.000000 2  1 (   1   5    )->(   7   8       )
  74     60.419 487271.  6  1  2.2596 0.000000 3  1 (   1   5   5)->(   6   7   8   )
  75     64.545 520553.  6  2  2.2596 0.000000 3  1 (   1   5   5)->(   6   7   8   )
  76     64.910 523490.  2  1  2.2596 0.000000 3  1 (   1   5   5)->(   6   6   8   )
  77     64.911 523502.  2  1  2.2597 0.000000 3  1 (   1   5   5)->(   7   7   8   )
 
 COSMO corrections to state energies
 State    Diag E (eV)   Uncorr E (eV)   Final E (eV)
     1       -0.40861       -0.40751       -0.40752
     2        6.47396        6.60208        6.49057
     3        6.59343        6.60617        6.59444
     4        6.59410        6.60696        6.59510
     5        6.82789        6.95538        6.84476
     6        6.84218        6.95538        6.84481
     7       10.87665       10.97429       10.88016
     8       10.87698       10.97502       10.88048
     9       11.71503       11.81268       11.73843
    10       13.33499       13.48932       13.35066
    11       13.33501       13.48940       13.35066
    12       13.60191       13.74385       13.61572
    13       13.60205       13.74408       13.61581
    14       13.88846       13.93621       13.91193
    15       13.91090       13.93621       13.91193
    16       14.31668       14.47684       14.33786
    17       14.31684       14.47775       14.33804
    18       14.69261       14.73875       14.71614
    19       17.27373       17.32783       17.27462
    20       17.27423       17.32878       17.27513
    21       18.46902       18.50792       18.50660
    22       18.63665       18.75047       18.63859
    23       18.89653       19.02362       18.90966
    24       18.89668       19.02436       18.90981
    25       19.49367       19.62951       19.51717
    26       19.51441       19.62954       19.51717
    27       20.46619       20.58708       20.50243
    28       21.15678       21.32292       21.16002
    29       22.37969       22.41328       22.39227
    30       24.20982       24.28504       24.22653
    31       24.22432       24.28509       24.22655
    32       24.31993       24.39474       24.33650
    33       24.47745       24.53138       24.48081
    34       25.20111       25.29841       25.22158
    35       25.20720       25.30073       25.22204
    36       25.25315       25.32781       25.26968
    37       25.74176       25.88605       25.76440
    38       25.74927       25.88838       25.76409
    39       25.82890       25.86786       25.85845
    40       25.82955       25.86849       25.85899
    41       26.61572       26.79299       26.63648
    42       27.16548       27.29440       27.18635
    43       27.16549       27.29493       27.18646
    44       30.39580       30.43901       30.40193
    45       30.39632       30.43977       30.40245
    46       30.76204       30.80775       30.76501
    47       30.76256       30.80853       30.76553
    48       32.36750       32.44807       32.37498
    49       32.36777       32.44868       32.37525
    50       32.65325       32.71065       32.65669
    51       32.71771       32.81030       32.73254
    52       32.71771       32.81031       32.73254
    53       33.68159       33.78838       33.70028
    54       33.68211       33.78980       33.70079
    55       36.25131       36.33571       36.25205
    56       36.25170       36.33651       36.25243
    57       38.36938       38.44563       38.39240
    58       38.39178       38.44562       38.39240
    59       38.60733       38.65956       38.60749
    60       39.22787       39.30395       39.25104
    61       39.38973       39.46458       39.39335
    62       39.38999       39.46532       39.39362
    63       41.92058       42.05050       41.94328
    64       41.94303       42.05050       41.94328
    65       42.69999       42.82916       42.72279
    66       43.62100       43.72864       43.62116
    67       50.29737       50.32476       50.29848
    68       50.54597       50.69868       50.54659
    69       50.54599       50.69936       50.54661
    70       52.26037       52.30177       52.26078
    71       52.26088       52.30256       52.26128
    72       57.66229       57.70388       57.66288
    73       57.66277       57.70464       57.66336
    74       60.49919       60.55596       60.49926
    75       64.78304       64.86291       64.80580
    76       64.80557       64.86291       64.80580
    77       65.62441       65.70391       65.64721

 Depression of ground-state after CI=      -3287. cm**-1 Energy=   190.4241898 eV
 Dipole moment= -0.698867  0.000000  0.000000 tot=  0.698867 Debyes


  CI trans.  energy frequency wavelength oscillator--------- polarization---------  dipole  ------ components-----
 st.  symm.    eV      cm - 1       nm      strength       x          y         z       moment     x       y       z 

   2      6.8980901    55637.    179.74  0.000000                                   1.853508   1.854  -0.000  -0.000
   3      7.0019574    56475.    177.07  0.043758   0.000000  -0.000000   1.000000  1.729486  -1.729   0.000   0.000
   4      7.0026205    56480.    177.05  0.043762  -0.000000  -1.000000  -0.000000  1.729491  -1.729   0.000   0.000
   5      7.2522838    58494.    170.96  0.000000                                   1.795897   1.796  -0.000  -0.000
   6      7.2523328    58494.    170.96  0.000000                                   1.795377   1.795  -0.000  -0.000
   7     11.2876754    91041.    109.84  0.164882  -0.000000   0.000000  -1.000000  1.807895   1.808  -0.000  -0.000
   8     11.2879994    91044.    109.84  0.164879   0.000000   1.000000   0.000000  1.807798   1.808  -0.000  -0.000
   9     12.1459487    97964.    102.08  0.519445  -1.000000   0.000000   0.000000  1.542437   1.542  -0.000  -0.000
  10     13.7581757   110967.     90.12  0.000052   0.000000   1.000000   0.000000  0.881514   0.882  -0.000  -0.000
  11     13.7581770   110967.     90.12  0.000049  -0.000000   0.000000  -1.000000  0.881510   0.882  -0.000  -0.000
  12     14.0232354   113105.     88.41  0.041828   0.000000   0.000000   1.000000  0.978584   0.979  -0.000  -0.000
  13     14.0233314   113106.     88.41  0.041824  -0.000000  -1.000000   0.000000  0.978601   0.979  -0.000  -0.000
  14     14.3194486   115494.     86.58  0.000000                                   3.379491  -3.379   0.000   0.000
  15     14.3194509   115494.     86.58  0.000000                                   3.378825  -3.379   0.000   0.000
  16     14.7453789   118930.     84.08  0.005948  -0.000000   1.000000  -0.000000  0.919452   0.919  -0.000  -0.000
  17     14.7455628   118931.     84.08  0.005937   0.000000  -0.000000  -1.000000  0.919432   0.919  -0.000  -0.000
  18     15.1236567   121981.     81.98  0.011752  -1.000000   0.000000   0.000000  3.224328  -3.224   0.000   0.000
  19     17.6821381   142616.     70.12  0.002256  -0.000000  -1.000000  -0.000000  0.911567   0.912  -0.000   0.000
  20     17.6826518   142621.     70.12  0.002256   0.000000  -0.000000   1.000000  0.911641   0.912   0.000  -0.000
  21     18.9141184   152553.     65.55  0.544799   1.000000  -0.000000  -0.000000  2.257020  -2.257   0.000   0.000
  22     19.0461141   153618.     65.10  0.000000                                   1.054891   1.055  -0.000  -0.000
  23     19.3171767   155804.     64.18  0.026863   0.000000  -0.000000   1.000000  1.041301   1.041  -0.000  -0.000
  24     19.3173297   155805.     64.18  0.026867  -0.000000  -1.000000  -0.000000  1.041273   1.041  -0.000  -0.000
  25     19.9246872   160704.     62.23  0.000000   1.000000  -0.000000   0.000000  0.553749   0.554  -0.000  -0.000
  26     19.9246890   160704.     62.23  0.000000                                   0.553036   0.553  -0.000  -0.000
  27     20.9099528   168651.     59.29  0.080695  -1.000000   0.000000   0.000000  0.130432  -0.130   0.000   0.000
  28     21.5675350   173954.     57.49  0.000000                                   0.060332  -0.060  -0.000  -0.000
  29     22.7997880   183893.     54.38  0.304713  -1.000000   0.000000   0.000000  1.355188   1.355  -0.000  -0.000
  30     24.6340468   198687.     50.33  0.000000                                   0.285132  -0.285  -0.000  -0.000
  31     24.6340671   198688.     50.33  0.000000                                   0.284363  -0.284  -0.000  -0.000
  32     24.7440196   199574.     50.11  0.000000                                   0.132711  -0.133  -0.000  -0.000
  33     24.8883287   200738.     49.82  0.001265  -1.000000   0.000000   0.000000  0.226690  -0.227  -0.000  -0.000
  34     25.6290996   206713.     48.38  0.000000                                   0.141457   0.141  -0.000  -0.000
  35     25.6295615   206717.     48.38  0.000000                                   0.151006   0.151  -0.000  -0.000
  36     25.6771993   207101.     48.29  0.000000                                   0.199127  -0.199   0.000   0.000
  37     26.1716055   211089.     47.37  0.000000                                   0.222646   0.223   0.000   0.000
  38     26.1719188   211091.     47.37  0.000000                                   0.211447   0.211   0.000   0.000
  39     26.2659671   211850.     47.20  0.003266  -0.000000  -0.000000   1.000000  3.089232  -3.089   0.000   0.000
  40     26.2665051   211854.     47.20  0.003265   0.000000  -1.000000  -0.000000  3.088575  -3.089   0.000   0.000
  41     27.0440035   218125.     45.85  0.003698   1.000000  -0.000000  -0.000000  0.139437   0.139   0.000   0.000
  42     27.5938682   222560.     44.93  0.000529   0.000000   1.000000   0.000000  0.644414  -0.644   0.000   0.000
  43     27.5939833   222561.     44.93  0.000529   0.000000  -0.000000   1.000000  0.643849  -0.644   0.000   0.000
  44     30.8094467   248496.     40.24  0.000010  -0.000000  -0.000000   1.000000  0.098474  -0.098   0.000   0.000
  45     30.8099689   248500.     40.24  0.000010  -0.000000   1.000000   0.000000  0.098588  -0.099   0.000   0.000
  46     31.1725307   251424.     39.77  0.000115  -0.000000   0.000000  -1.000000  0.834424  -0.834   0.000   0.000
  47     31.1730510   251428.     39.77  0.000115   0.000000   1.000000   0.000000  0.834540  -0.835   0.000   0.000
  48     32.7824988   264409.     37.82  0.000030   0.000000   0.000000   1.000000  1.452564  -1.453   0.000   0.000
  49     32.7827685   264412.     37.82  0.000030   0.000000   1.000000  -0.000000  1.452526  -1.453   0.000   0.000
  50     33.0642111   266682.     37.50  0.018167   1.000000  -0.000000  -0.000000  0.047239  -0.047   0.000   0.000
  51     33.1400546   267293.     37.41  0.000000  -0.000000  -1.000000   0.000000  1.666394  -1.666   0.000   0.000
  52     33.1400549   267293.     37.41  0.000000   0.000000   0.000000   1.000000  1.666405  -1.666   0.000   0.000
  53     34.1077990   275099.     36.35  0.000006   0.000000  -1.000000   0.000000  1.641797  -1.642   0.000   0.000
  54     34.1083086   275103.     36.35  0.000006   0.000000  -0.000000  -1.000000  1.641824  -1.642   0.000   0.000
  55     36.6595663   295680.     33.82  0.018236   0.000000  -0.000000   1.000000  1.470464   1.470  -0.000  -0.000
  56     36.6599498   295683.     33.82  0.018232  -0.000000  -1.000000  -0.000000  1.470412   1.470  -0.000  -0.000
  57     38.7999170   312943.     31.95  0.000000                                   1.364059  -1.364   0.000   0.000
  58     38.7999189   312943.     31.95  0.000000                                   1.364009  -1.364   0.000   0.000
  59     39.0150062   314678.     31.78  0.000000                                   1.484950  -1.485   0.000   0.000
  60     39.6585622   319869.     31.26  0.000010   1.000000  -0.000000  -0.000000  1.367151  -1.367   0.000   0.000
  61     39.8008701   321016.     31.15  0.000038  -0.000000   0.000000  -1.000000  1.831965  -1.832   0.000   0.000
  62     39.8011375   321019.     31.15  0.000038  -0.000000  -1.000000  -0.000000  1.832117  -1.832   0.000   0.000
  63     42.3507946   341583.     29.28  0.000000                                   0.794418   0.794  -0.000  -0.000
  64     42.3507983   341583.     29.28  0.000000                                   0.794401   0.794  -0.000  -0.000
  65     43.1303103   347870.     28.75  0.000535   1.000000  -0.000000  -0.000000  0.769154   0.769  -0.000  -0.000
  66     44.0286818   355116.     28.16  0.000000                                   0.412809   0.413  -0.000  -0.000
  67     50.7060031   408973.     24.45  0.292638  -1.000000   0.000000   0.000000  0.347173   0.347   0.000   0.000
  68     50.9541097   410974.     24.33  0.000037   0.000000  -1.000000  -0.000000  0.708091  -0.708   0.000   0.000
  69     50.9541330   410974.     24.33  0.000037   0.000000   0.000000  -1.000000  0.708168  -0.708   0.000   0.000
  70     52.6682958   424800.     23.54  0.001683   0.000000  -0.000000   1.000000  0.261886  -0.262   0.000   0.000
  71     52.6688009   424804.     23.54  0.001683  -0.000000  -1.000000  -0.000000  0.261971  -0.262   0.000   0.000
  72     58.0703997   468371.     21.35  0.000073  -0.000000  -0.000000   1.000000  0.941322  -0.941   0.000   0.000
  73     58.0708745   468374.     21.35  0.000073  -0.000000   1.000000   0.000000  0.941404  -0.941   0.000   0.000
  74     60.9067748   491248.     20.36  0.000000                                   1.927962  -1.928   0.000   0.000
  75     65.2133153   525982.     19.01  0.000000                                   2.379773  -2.380   0.000   0.000
  76     65.2133154   525982.     19.01  0.000000                                   2.379776  -2.380   0.000   0.000
  77     66.0547305   532769.     18.77  0.000105   1.000000  -0.000000  -0.000000  2.363592  -2.364   0.000   0.000

 Polarizability (au  ) xx=   13.34 xy=   -0.00 yy=    5.61 xz=   -0.00 yz=   -0.00 zz=    5.61
 Polarizability (A**3) xx=    1.98 xy=   -0.00 yy=    0.83 xz=   -0.00 yz=   -0.00 zz=    0.83


 Major CI contributions to CI states

State    1  0.0000     CI coeff  CI percent
    Config       1   0.99148272  0.98303799
    Config      15  -0.05633738  0.00317390
    Config      16  -0.05633211  0.00317331
    Config      43  -0.06160380  0.00379503
    Config      44  -0.06160237  0.00379485
 Total coeff printed             0.99697508
  
State    2  6.8981     CI coeff  CI percent
    Config       4  -0.70268616  0.49376784
    Config       5  -0.70164573  0.49230674
    Config      28   0.04448663  0.00197906
    Config      29  -0.04442359  0.00197345
    Config      33   0.04738893  0.00224571
    Config      34  -0.04731698  0.00223890
    Config      35  -0.05231066  0.00273641
    Config      36   0.05223264  0.00272825
 Total coeff printed             0.99997635
  
State    3  7.0020     CI coeff  CI percent
    Config       2  -0.99141068  0.98289513
    Config       8  -0.06817682  0.00464808
    Config      47   0.06453070  0.00416421
 Total coeff printed             0.99170742
  
State    4  7.0026     CI coeff  CI percent
    Config       3   0.99141045  0.98289469
    Config       9   0.06817774  0.00464820
    Config      48  -0.06453065  0.00416421
 Total coeff printed             0.99170710
  
State    5  7.2523     CI coeff  CI percent
    Config       4   0.69747756  0.48647495
    Config       5  -0.69852403  0.48793582
    Config      12   0.06195635  0.00383859
    Config      25  -0.08907503  0.00793436
    Config      28  -0.04315024  0.00186194
    Config      29  -0.04321778  0.00186778
    Config      33  -0.04723774  0.00223140
    Config      34  -0.04730678  0.00223793
    Config      35   0.05217802  0.00272255
    Config      36   0.05225567  0.00273066
 Total coeff printed             0.99983598
  
State    6  7.2523     CI coeff  CI percent
    Config       6  -0.69795950  0.48714746
    Config       7  -0.69797155  0.48716428
    Config      15  -0.04402880  0.00193854
    Config      16   0.04402271  0.00193800
    Config      26  -0.06316858  0.00399027
    Config      27   0.06316584  0.00398992
    Config      37   0.04327285  0.00187254
    Config      38  -0.04327298  0.00187255
    Config      43  -0.07010024  0.00491404
    Config      44   0.07010396  0.00491456
 Total coeff printed             0.99974216
  
State    7 11.2877     CI coeff  CI percent
    Config       2   0.05124979  0.00262654
    Config       8  -0.84545187  0.71478887
    Config      10   0.31309850  0.09803067
    Config      14  -0.04719522  0.00222739
    Config      17   0.40791268  0.16639276
    Config      21   0.08984744  0.00807256
    Config      42   0.05298394  0.00280730
    Config      45   0.04998859  0.00249886
 Total coeff printed             0.99744495
  
State    8 11.2880     CI coeff  CI percent
    Config       3  -0.05124354  0.00262590
    Config       9   0.84543187  0.71475505
    Config      11  -0.31309989  0.09803154
    Config      13   0.04721425  0.00222919
    Config      18  -0.40795692  0.16642885
    Config      22   0.08982590  0.00806869
    Config      41   0.05298463  0.00280737
    Config      46  -0.04998648  0.00249865
 Total coeff printed             0.99744524
  
State    9 12.1459     CI coeff  CI percent
    Config       6   0.64288863  0.41330579
    Config       7  -0.64287436  0.41328744
    Config      15  -0.07578951  0.00574405
    Config      16  -0.07575244  0.00573843
    Config      23  -0.35678179  0.12729325
    Config      26  -0.05173970  0.00267700
    Config      27  -0.05174051  0.00267708
    Config      30   0.11616687  0.01349474
    Config      43   0.05874671  0.00345118
    Config      44   0.05874933  0.00345148
    Config      67   0.07519497  0.00565428
 Total coeff printed             0.99677471
  
State   10 13.7582     CI coeff  CI percent
    Config      11  -0.60745466  0.36900116
    Config      13  -0.52549432  0.27614428
    Config      18   0.50086000  0.25086074
    Config      22   0.32041045  0.10266286
 Total coeff printed             0.99866904
  
State   11 13.7582     CI coeff  CI percent
    Config      10   0.60794157  0.36959296
    Config      14   0.52505724  0.27568511
    Config      17  -0.50082690  0.25082758
    Config      21   0.32026465  0.10256945
 Total coeff printed             0.99867509
  
State   12 14.0232     CI coeff  CI percent
    Config       2  -0.06703078  0.00449313
    Config       8   0.34900628  0.12180538
    Config      10   0.72609085  0.52720793
    Config      14  -0.46197462  0.21342055
    Config      17   0.19401914  0.03764343
    Config      21  -0.30428028  0.09258649
 Total coeff printed             0.99715690
  
State   13 14.0233     CI coeff  CI percent
    Config       3   0.06702778  0.00449272
    Config       9  -0.34896938  0.12177963
    Config      11  -0.72649105  0.52778924
    Config      13   0.46181099  0.21326939
    Config      18  -0.19349899  0.03744186
    Config      22  -0.30394854  0.09238471
 Total coeff printed             0.99715756
  
State   14 14.3194     CI coeff  CI percent
    Config      12  -0.99440682  0.98884492
    Config      25  -0.05176702  0.00267982
    Config      28  -0.04846035  0.00234841
    Config      29  -0.04846338  0.00234870
 Total coeff printed             0.99622185
  
State   15 14.3195     CI coeff  CI percent
    Config      15   0.70360293  0.49505709
    Config      16  -0.70267732  0.49375542
    Config      37   0.04846630  0.00234898
    Config      38  -0.04843480  0.00234593
 Total coeff printed             0.99350742
  
State   16 14.7454     CI coeff  CI percent
    Config       9   0.18381918  0.03378949
    Config      11   0.04500311  0.00202528
    Config      13   0.70897170  0.50264088
    Config      18   0.53169844  0.28270323
    Config      19  -0.06081881  0.00369893
    Config      22   0.41007612  0.16816242
    Config      41   0.06820401  0.00465179
 Total coeff printed             0.99767202
  
State   17 14.7456     CI coeff  CI percent
    Config       8  -0.18369896  0.03374531
    Config      10  -0.04490124  0.00201612
    Config      14  -0.70919043  0.50295107
    Config      17  -0.53157209  0.28256889
    Config      20  -0.06081693  0.00369870
    Config      21   0.40993023  0.16804279
    Config      42   0.06819706  0.00465084
 Total coeff printed             0.99767372
  
State   18 15.1237     CI coeff  CI percent
    Config       1  -0.07741528  0.00599313
    Config       6  -0.04109610  0.00168889
    Config       7   0.04105242  0.00168530
    Config      15  -0.69498519  0.48300442
    Config      16  -0.69592358  0.48430962
    Config      23   0.13888957  0.01929031
 Total coeff printed             0.99597167
  
State   19 17.6821     CI coeff  CI percent
    Config      13  -0.04794112  0.00229835
    Config      19  -0.99117582  0.98242951
    Config      22  -0.05382821  0.00289748
    Config      48  -0.06031240  0.00363759
    Config      51   0.05469141  0.00299115
    Config      54   0.05652661  0.00319526
 Total coeff printed             0.99744933
  
State   20 17.6827     CI coeff  CI percent
    Config      14   0.04793947  0.00229819
    Config      20  -0.99117519  0.98242826
    Config      21  -0.05383553  0.00289826
    Config      47   0.06031721  0.00363817
    Config      52  -0.05468922  0.00299091
    Config      53  -0.05652902  0.00319553
 Total coeff printed             0.99744933
  
State   21 18.9141     CI coeff  CI percent
    Config       6  -0.18568047  0.03447724
    Config       7   0.18566092  0.03446998
    Config      15  -0.05526622  0.00305435
    Config      16  -0.05528664  0.00305661
    Config      23  -0.79566436  0.63308178
    Config      26   0.27076201  0.07331207
    Config      27   0.27064076  0.07324642
    Config      30  -0.30212910  0.09128199
    Config      31  -0.12432313  0.01545624
    Config      32  -0.12431934  0.01545530
    Config      37  -0.08147858  0.00663876
    Config      38  -0.08142925  0.00663072
    Config      43   0.04716528  0.00222456
    Config      44   0.04716122  0.00222418
    Config      67  -0.06307951  0.00397902
 Total coeff printed             0.99858923
  
State   22 19.0461     CI coeff  CI percent
    Config      24   0.91528004  0.83773755
    Config      28  -0.28351435  0.08038039
    Config      29   0.28349250  0.08036800
 Total coeff printed             0.99848594
  
State   23 19.3172     CI coeff  CI percent
    Config       8   0.31966103  0.10218317
    Config      17   0.48796774  0.23811251
    Config      20  -0.04082450  0.00166664
    Config      21   0.75797489  0.57452593
    Config      39   0.25079993  0.06290061
    Config      45   0.08301133  0.00689088
    Config      47  -0.07579150  0.00574435
    Config      72  -0.07740837  0.00599206
 Total coeff printed             0.99801615
  
State   24 19.3173     CI coeff  CI percent
    Config       9  -0.31967856  0.10219438
    Config      18  -0.48796811  0.23811287
    Config      19  -0.04081140  0.00166557
    Config      22   0.75797548  0.57452683
    Config      40  -0.25077838  0.06288980
    Config      46  -0.08301099  0.00689082
    Config      48   0.07578825  0.00574386
    Config      73   0.07740846  0.00599207
 Total coeff printed             0.99801620
  
State   25 19.9247     CI coeff  CI percent
    Config       6   0.07896765  0.00623589
    Config       7   0.07905655  0.00624994
    Config      15  -0.04992126  0.00249213
    Config      16   0.04989997  0.00249001
    Config      26  -0.63355940  0.40139752
    Config      27   0.63332726  0.40110342
    Config      37   0.29827284  0.08896669
    Config      38  -0.29816200  0.08890058
 Total coeff printed             0.99783617
  
State   26 19.9247     CI coeff  CI percent
    Config       4  -0.07880632  0.00621044
    Config       5   0.07880595  0.00621038
    Config      12   0.07062111  0.00498734
    Config      25  -0.89563995  0.80217092
    Config      28  -0.29856358  0.08914021
    Config      29  -0.29852595  0.08911774
    Config      63  -0.04593797  0.00211030
 Total coeff printed             0.99994732
  
State   27 20.9100     CI coeff  CI percent
    Config       6   0.10176005  0.01035511
    Config       7  -0.10172189  0.01034734
    Config      15   0.05248860  0.00275505
    Config      16   0.05252190  0.00275855
    Config      23   0.28969787  0.08392486
    Config      26   0.57045856  0.32542297
    Config      27   0.57075127  0.32575701
    Config      30   0.19368315  0.03751316
    Config      31   0.08978939  0.00806213
    Config      32   0.08978546  0.00806143
    Config      37  -0.29886517  0.08932039
    Config      38  -0.29902982  0.08941883
 Total coeff printed             0.99369684
  
State   28 21.5675     CI coeff  CI percent
    Config       4  -0.04220959  0.00178165
    Config       5  -0.04221559  0.00178216
    Config      24  -0.40205706  0.16164988
    Config      28  -0.64512884  0.41619122
    Config      29   0.64513324  0.41619689
 Total coeff printed             0.99760179
  
State   29 22.7998     CI coeff  CI percent
    Config       6   0.15089749  0.02277005
    Config       7  -0.15089214  0.02276844
    Config      23   0.35361397  0.12504284
    Config      30  -0.78895324  0.62244722
    Config      31  -0.26665789  0.07110643
    Config      32  -0.26664786  0.07110108
    Config      37  -0.05282401  0.00279038
    Config      38  -0.05283276  0.00279130
    Config      43   0.14222678  0.02022846
    Config      44   0.14222653  0.02022838
    Config      60   0.05637675  0.00317834
    Config      61   0.05637258  0.00317787
    Config      67   0.08098508  0.00655858
 Total coeff printed             0.99418937
  
State   30 24.6340     CI coeff  CI percent
    Config      25   0.04424181  0.00195734
    Config      28  -0.05738991  0.00329360
    Config      29  -0.05757586  0.00331498
    Config      33  -0.68304219  0.46654664
    Config      34  -0.67818921  0.45994061
    Config      35  -0.17418876  0.03034172
    Config      36  -0.17452869  0.03046027
 Total coeff printed             0.99585515
  
State   31 24.6341     CI coeff  CI percent
    Config      31  -0.65017319  0.42272518
    Config      32   0.65005626  0.42257314
    Config      37  -0.05895766  0.00347601
    Config      38   0.05894891  0.00347497
    Config      43   0.26600137  0.07075673
    Config      44  -0.26602993  0.07077192
 Total coeff printed             0.99377795
  
State   32 24.7440     CI coeff  CI percent
    Config       4   0.05118903  0.00262032
    Config       5   0.05140605  0.00264258
    Config      33   0.69729254  0.48621689
    Config      34  -0.70194522  0.49272709
    Config      35  -0.07810920  0.00610105
    Config      36   0.07671682  0.00588547
 Total coeff printed             0.99619340
  
State   33 24.8883     CI coeff  CI percent
    Config      23  -0.05304755  0.00281404
    Config      30  -0.39007371  0.15215750
    Config      31   0.63344660  0.40125459
    Config      32   0.63355188  0.40138799
    Config      43   0.13875324  0.01925246
    Config      44   0.13865802  0.01922605
 Total coeff printed             0.99609262
  
State   34 25.6291     CI coeff  CI percent
    Config       4  -0.05901946  0.00348330
    Config       5   0.05844449  0.00341576
    Config      25   0.22226116  0.04940002
    Config      28  -0.31994233  0.10236309
    Config      29  -0.32017160  0.10250985
    Config      33  -0.11054839  0.01222095
    Config      34  -0.11173458  0.01248462
    Config      35   0.59662708  0.35596388
    Config      36   0.58763558  0.34531558
    Config      59   0.09971861  0.00994380
    Config      75   0.04228517  0.00178804
 Total coeff printed             0.99888888
  
State   35 25.6296     CI coeff  CI percent
    Config       6  -0.05808942  0.00337438
    Config       7  -0.05809202  0.00337468
    Config      26  -0.16335839  0.02668596
    Config      27   0.16336202  0.02668715
    Config      31   0.26256041  0.06893797
    Config      32  -0.26260385  0.06896078
    Config      37  -0.33375649  0.11139339
    Config      38   0.33372838  0.11137463
    Config      43   0.53190929  0.28292749
    Config      44  -0.53192487  0.28294407
    Config      60  -0.07186339  0.00516435
    Config      61   0.07185521  0.00516317
 Total coeff printed             0.99698803
  
State   36 25.6772     CI coeff  CI percent
    Config       4  -0.04529515  0.00205165
    Config       5  -0.04602407  0.00211822
    Config      33   0.07994565  0.00639131
    Config      34  -0.07881404  0.00621165
    Config      35   0.69596943  0.48437345
    Config      36  -0.70338406  0.49474913
    Config      62  -0.04472924  0.00200071
 Total coeff printed             0.99789611
  
State   37 26.1716     CI coeff  CI percent
    Config      25   0.36006060  0.12964364
    Config      28  -0.54113954  0.29283200
    Config      29  -0.54117271  0.29286791
    Config      33   0.14462347  0.02091595
    Config      34   0.14466585  0.02092821
    Config      35  -0.33827378  0.11442915
    Config      36  -0.33881965  0.11479876
    Config      59   0.07289764  0.00531407
    Config      63   0.04086044  0.00166958
    Config      75   0.06734366  0.00453517
 Total coeff printed             0.99793441
  
State   38 26.1719     CI coeff  CI percent
    Config      26   0.25021048  0.06260529
    Config      27  -0.25021308  0.06260659
    Config      31   0.09129269  0.00833436
    Config      32  -0.09130509  0.00833662
    Config      37   0.53285998  0.28393976
    Config      38  -0.53282009  0.28389725
    Config      43   0.37217612  0.13851506
    Config      44  -0.37218464  0.13852140
    Config      60   0.04967150  0.00246726
    Config      61  -0.04966421  0.00246653
    Config      76   0.04683994  0.00219398
    Config      77  -0.04683545  0.00219356
 Total coeff printed             0.99607765
  
State   39 26.2660     CI coeff  CI percent
    Config       8   0.13794909  0.01902995
    Config      17   0.10189598  0.01038279
    Config      21   0.12011042  0.01442651
    Config      39  -0.85829762  0.73667481
    Config      42   0.37227123  0.13858587
    Config      45   0.24570527  0.06037108
    Config      47   0.07634346  0.00582832
    Config      49   0.05414182  0.00293134
    Config      53  -0.05437326  0.00295645
    Config      70   0.04984072  0.00248410
    Config      72  -0.05965812  0.00355909
 Total coeff printed             0.99723032
  
State   40 26.2665     CI coeff  CI percent
    Config       9  -0.13794557  0.01902898
    Config      18  -0.10187895  0.01037932
    Config      22   0.12006740  0.01441618
    Config      40   0.85821988  0.73654136
    Config      41   0.37248655  0.13874623
    Config      46  -0.24568265  0.06035996
    Config      48  -0.07635258  0.00582972
    Config      50  -0.05413681  0.00293079
    Config      54   0.05436730  0.00295580
    Config      71  -0.04983746  0.00248377
    Config      73   0.05965026  0.00355815
 Total coeff printed             0.99723027
  
State   41 27.0440     CI coeff  CI percent
    Config       6  -0.07170917  0.00514221
    Config       7   0.07170724  0.00514193
    Config      23  -0.04433162  0.00196529
    Config      26  -0.30335132  0.09202202
    Config      27  -0.30338776  0.09204413
    Config      37  -0.62511102  0.39076379
    Config      38  -0.62514233  0.39080294
    Config      60  -0.08488769  0.00720592
    Config      61  -0.08488636  0.00720569
    Config      76  -0.05615935  0.00315387
    Config      77  -0.05616084  0.00315404
 Total coeff printed             0.99860183
  
State   42 27.5939     CI coeff  CI percent
    Config      13  -0.04031621  0.00162540
    Config      22  -0.11249172  0.01265439
    Config      40  -0.34224964  0.11713481
    Config      41   0.92176065  0.84964270
    Config      46   0.11006142  0.01211352
 Total coeff printed             0.99317081
  
State   43 27.5940     CI coeff  CI percent
    Config      14  -0.04032003  0.00162570
    Config      21   0.11246888  0.01264925
    Config      39  -0.34204706  0.11699619
    Config      42  -0.92184788  0.84980352
    Config      45   0.11000480  0.01210106
 Total coeff printed             0.99317572
  
State   44 30.8094     CI coeff  CI percent
    Config      17   0.08744155  0.00764602
    Config      21   0.11600732  0.01345770
    Config      39  -0.24830259  0.06165418
    Config      45  -0.89221295  0.79604394
    Config      47   0.04333128  0.00187760
    Config      49  -0.25339018  0.06420658
    Config      52  -0.04562440  0.00208159
    Config      53   0.17122147  0.02931679
    Config      55  -0.11206627  0.01255885
    Config      57   0.07858549  0.00617568
    Config      72  -0.06150979  0.00378345
 Total coeff printed             0.99880239
  
State   45 30.8100     CI coeff  CI percent
    Config      18   0.08743922  0.00764562
    Config      22  -0.11599882  0.01345573
    Config      40  -0.24830935  0.06165753
    Config      46  -0.89219775  0.79601683
    Config      48   0.04332010  0.00187663
    Config      50  -0.25340407  0.06421362
    Config      51  -0.04565445  0.00208433
    Config      54   0.17126137  0.02933046
    Config      56  -0.11208250  0.01256249
    Config      58  -0.07858596  0.00617575
    Config      73  -0.06150870  0.00378332
 Total coeff printed             0.99880230
  
State   46 31.1725     CI coeff  CI percent
    Config       8  -0.04207589  0.00177038
    Config      20  -0.07058129  0.00498172
    Config      39  -0.09140505  0.00835488
    Config      47  -0.89152203  0.79481152
    Config      53   0.25699386  0.06604584
    Config      55   0.34213757  0.11705811
    Config      70  -0.04803038  0.00230692
 Total coeff printed             0.99532938
  
State   47 31.1731     CI coeff  CI percent
    Config       9   0.04207305  0.00177014
    Config      19  -0.07057798  0.00498125
    Config      40   0.09141011  0.00835581
    Config      48   0.89151445  0.79479801
    Config      54  -0.25703587  0.06606744
    Config      56  -0.34212556  0.11704990
    Config      71   0.04802927  0.00230681
 Total coeff printed             0.99532936
  
State   48 32.7825     CI coeff  CI percent
    Config      45   0.33090036  0.10949505
    Config      49  -0.74139737  0.54967006
    Config      52  -0.28375048  0.08051433
    Config      53   0.41999956  0.17639963
    Config      55  -0.28167459  0.07934057
 Total coeff printed             0.99541965
  
State   49 32.7828     CI coeff  CI percent
    Config      46   0.33092435  0.10951092
    Config      50  -0.74095335  0.54901187
    Config      51  -0.28426372  0.08080586
    Config      54   0.42026184  0.17662002
    Config      56  -0.28190125  0.07946832
 Total coeff printed             0.99541698
  
State   50 33.0642     CI coeff  CI percent
    Config       1   0.07933697  0.00629436
    Config       6  -0.07186767  0.00516496
    Config       7   0.07186894  0.00516514
    Config      30   0.27456462  0.07538573
    Config      31  -0.05942850  0.00353175
    Config      32  -0.05943218  0.00353218
    Config      43   0.66494238  0.44214837
    Config      44   0.66493337  0.44213639
    Config      60   0.04464468  0.00199315
    Config      61   0.04464137  0.00199285
    Config      64   0.06273687  0.00393591
    Config      65   0.06273634  0.00393585
    Config      67  -0.05657910  0.00320119
 Total coeff printed             0.99841784
  
State   51 33.1401     CI coeff  CI percent
    Config      50   0.60762055  0.36920273
    Config      51  -0.50577881  0.25581220
    Config      54   0.48484584  0.23507549
    Config      56  -0.37239262  0.13867627
 Total coeff printed             0.99876669
  
State   52 33.1401     CI coeff  CI percent
    Config      49  -0.60711129  0.36858412
    Config      52   0.50561736  0.25564891
    Config      53  -0.48538607  0.23559963
    Config      55   0.37274327  0.13893755
 Total coeff printed             0.99877021
  
State   53 34.1078     CI coeff  CI percent
    Config      19  -0.06962277  0.00484733
    Config      46  -0.06492406  0.00421513
    Config      50  -0.10587741  0.01121003
    Config      51  -0.80938962  0.65511155
    Config      54  -0.46559325  0.21677707
    Config      56   0.32191443  0.10362890
    Config      68  -0.04813695  0.00231717
 Total coeff printed             0.99810718
  
State   54 34.1083     CI coeff  CI percent
    Config      20   0.06962253  0.00484730
    Config      45  -0.06486949  0.00420805
    Config      49  -0.10572555  0.01117789
    Config      52  -0.80967298  0.65557034
    Config      53  -0.46529689  0.21650119
    Config      55   0.32169128  0.10348528
    Config      69   0.04813794  0.00231726
 Total coeff printed             0.99810731
  
State   55 36.6596     CI coeff  CI percent
    Config      39  -0.04757833  0.00226370
    Config      45  -0.07187945  0.00516666
    Config      53   0.04239211  0.00179709
    Config      55   0.06617054  0.00437854
    Config      57  -0.98389719  0.96805368
    Config      69   0.06490104  0.00421214
    Config      70  -0.10490444  0.01100494
 Total coeff printed             0.99687675
  
State   56 36.6599     CI coeff  CI percent
    Config      40   0.04757865  0.00226373
    Config      46   0.07188098  0.00516688
    Config      54  -0.04239414  0.00179726
    Config      56  -0.06617725  0.00437943
    Config      58  -0.98389666  0.96805264
    Config      68   0.06490389  0.00421251
    Config      71   0.10490156  0.01100434
 Total coeff printed             0.99687679
  
State   57 38.7999     CI coeff  CI percent
    Config      25  -0.04987821  0.00248784
    Config      28   0.07299418  0.00532815
    Config      29   0.07299383  0.00532810
    Config      59   0.98826550  0.97666869
    Config      63   0.07854275  0.00616896
 Total coeff printed             0.99598174
  
State   58 38.7999     CI coeff  CI percent
    Config      37  -0.07307175  0.00533948
    Config      38   0.07299165  0.00532778
    Config      60   0.69913817  0.48879418
    Config      61  -0.69845726  0.48784255
    Config      64  -0.05559486  0.00309079
    Config      65   0.05553693  0.00308435
 Total coeff printed             0.99347912
  
State   59 39.0150     CI coeff  CI percent
    Config      62  -0.99526289  0.99054821
    Config      66   0.05314056  0.00282392
    Config      74  -0.05423577  0.00294152
 Total coeff printed             0.99631365
  
State   60 39.6586     CI coeff  CI percent
    Config      30  -0.06380905  0.00407159
    Config      37   0.07448333  0.00554777
    Config      38   0.07454905  0.00555756
    Config      43   0.05208714  0.00271307
    Config      44   0.05205441  0.00270966
    Config      60  -0.69425907  0.48199565
    Config      61  -0.69494509  0.48294868
    Config      64   0.06513954  0.00424316
    Config      65   0.06520056  0.00425111
 Total coeff printed             0.99403826
  
State   61 39.8009     CI coeff  CI percent
    Config       2   0.07363431  0.00542201
    Config      39   0.04647875  0.00216027
    Config      47   0.42282253  0.17877890
    Config      53   0.51537419  0.26561056
    Config      55   0.73193609  0.53573044
    Config      57   0.07420987  0.00550710
    Config      69   0.05802928  0.00336740
 Total coeff printed             0.99657668
  
State   62 39.8011     CI coeff  CI percent
    Config       3   0.07363550  0.00542219
    Config      40   0.04648984  0.00216131
    Config      48   0.42283636  0.17879058
    Config      54   0.51536745  0.26560361
    Config      56   0.73193151  0.53572374
    Config      58  -0.07421600  0.00550801
    Config      68  -0.05802887  0.00336735
 Total coeff printed             0.99657679
  
State   63 42.3508     CI coeff  CI percent
    Config      25  -0.04778947  0.00228383
    Config      59  -0.07668360  0.00588037
    Config      63   0.99366641  0.98737294
 Total coeff printed             0.99553714
  
State   64 42.3508     CI coeff  CI percent
    Config      43  -0.04025711  0.00162064
    Config      44   0.04029202  0.00162345
    Config      60  -0.05425331  0.00294342
    Config      61   0.05422867  0.00294075
    Config      64  -0.70280225  0.49393100
    Config      65   0.70244115  0.49342357
 Total coeff printed             0.99648282
  
State   65 43.1303     CI coeff  CI percent
    Config      43  -0.06614587  0.00437528
    Config      44  -0.06612456  0.00437246
    Config      60   0.06052856  0.00366371
    Config      61   0.06056293  0.00366787
    Config      64   0.69905979  0.48868459
    Config      65   0.69942158  0.48919054
 Total coeff printed             0.99395444
  
State   66 44.0287     CI coeff  CI percent
    Config      62   0.05334347  0.00284553
    Config      66   0.99621754  0.99244939
    Config      74   0.04565258  0.00208416
 Total coeff printed             0.99737907
  
State   67 50.7060     CI coeff  CI percent
    Config       6   0.08135393  0.00661846
    Config       7  -0.08135243  0.00661822
    Config      23   0.05657504  0.00320074
    Config      30  -0.05792237  0.00335500
    Config      67  -0.98527799  0.97077271
    Config      76   0.05696538  0.00324505
    Config      77   0.05696178  0.00324464
 Total coeff printed             0.99705483
  
State   68 50.9541     CI coeff  CI percent
    Config      56  -0.06978623  0.00487012
    Config      58  -0.06554060  0.00429557
    Config      68  -0.99260200  0.98525874
    Config      71  -0.04112842  0.00169155
 Total coeff printed             0.99611597
  
State   69 50.9541     CI coeff  CI percent
    Config      55  -0.06978636  0.00487014
    Config      57   0.06553979  0.00429546
    Config      69   0.99260153  0.98525780
    Config      70  -0.04114216  0.00169268
 Total coeff printed             0.99611608
  
State   70 52.6683     CI coeff  CI percent
    Config      39   0.04115394  0.00169365
    Config      47  -0.05381700  0.00289627
    Config      57  -0.10263792  0.01053454
    Config      69   0.04817854  0.00232117
    Config      70   0.99036222  0.98081734
 Total coeff printed             0.99826297
  
State   71 52.6688     CI coeff  CI percent
    Config      40  -0.04115438  0.00169368
    Config      48   0.05381653  0.00289622
    Config      58  -0.10263583  0.01053411
    Config      68   0.04816487  0.00231985
    Config      71  -0.99036311  0.98081908
 Total coeff printed             0.99826295
  
State   72 58.0704     CI coeff  CI percent
    Config      17  -0.05610012  0.00314722
    Config      21  -0.07596053  0.00577000
    Config      39   0.05644904  0.00318649
    Config      72  -0.99205660  0.98417629
 Total coeff printed             0.99628001
  
State   73 58.0709     CI coeff  CI percent
    Config      18  -0.05610051  0.00314727
    Config      22   0.07595823  0.00576965
    Config      40   0.05644948  0.00318654
    Config      73  -0.99205675  0.98417660
 Total coeff printed             0.99628006
  
State   74 60.9068     CI coeff  CI percent
    Config      62   0.05690990  0.00323874
    Config      66   0.04254696  0.00181024
    Config      74  -0.99700868  0.99402630
 Total coeff printed             0.99907528
  
State   75 65.2133     CI coeff  CI percent
    Config      37   0.05168038  0.00267086
    Config      38  -0.05163601  0.00266628
    Config      76  -0.70431382  0.49605796
    Config      77   0.70373990  0.49524985
 Total coeff printed             0.99664495
  
State   76 65.2133     CI coeff  CI percent
    Config      28   0.05164875  0.00266759
    Config      29   0.05164785  0.00266750
    Config      75   0.99564553  0.99131003
 Total coeff printed             0.99664512
  
State   77 66.0547     CI coeff  CI percent
    Config      37  -0.05172430  0.00267540
    Config      38  -0.05176465  0.00267958
    Config      67   0.08061935  0.00649948
    Config      76   0.70129334  0.49181235
    Config      77   0.70186978  0.49262119
 Total coeff printed             0.99628800
  

 -------------------------------------------------------------------------------
 INDO MRCI C.A.S.=(3,1) EPS=20.0
 Carbon Monoxide
 INDO


     NO PARAMETERS MARKED FOR OPTIMIZATION, SO 1SCF WAS USED  
     SCF FIELD WAS ACHIEVED                                   


                              INDO CALCULATION
                                                       MOPAC v22.0.6 MacOS
                                                       Wed Jul 12 16:25:35 2023
          VAN DER WAALS AREA      =         57.92 SQUARE ANGSTROMS



          DIELECTRIC ENERGY       =         -0.07380 EV
          COSMO AREA              =         57.92 SQUARE ANGSTROMS
          COSMO VOLUME            =         40.40 CUBIC ANGSTROMS

          IONIZATION POTENTIAL    =         14.510645 EV
          HOMO LUMO ENERGIES (EV) =        -14.511  0.109
          NO. OF FILLED LEVELS    =          5
          MOLECULAR WEIGHT        =         28.0104         POINT GROUP:  C*v 

          MOLECULAR DIMENSIONS (Angstroms)

            Atom       Atom       Distance
            O     2    C     1     1.17300
            O     2    C     1     0.00000
            C     1    O     2     0.00000


          SCF CALCULATIONS        =          2

          WALL-CLOCK TIME         =      0.129 SECONDS
          COMPUTATION TIME        =      0.127 SECONDS




   ATOM   CHEMICAL          X               Y               Z
  NUMBER   SYMBOL      (ANGSTROMS)     (ANGSTROMS)     (ANGSTROMS)

     1       C          0.00000000      0.00000000      0.00000000   
     2       O          1.17300000      0.00000000      0.00000000   

                             CARTESIAN COORDINATES

   1    C        0.000000000     0.000000000     0.000000000
   2    O        1.173000000     0.000000000     0.000000000


           Empirical Formula: C O  =     2 atoms



      MOLECULAR POINT GROUP   :   C*v 


                  EIGENVALUES  
 -43.14527 -19.34695 -14.87322 -14.87226 -14.51064   0.10937   0.11016  10.45157


              NET ATOMIC CHARGES AND DIPOLE CONTRIBUTIONS

  ATOM NO.   TYPE          CHARGE      No. of ELECS.   s-Pop       p-Pop       
    1          C           0.266643        3.7334     1.80694     1.92642
    2          O          -0.266643        6.2666     1.79552     4.47113
 DIPOLE           X         Y         Z       TOTAL
 POINT-CHG.    -1.502     0.000     0.000     1.502
 HYBRID         0.838    -0.000    -0.000     0.838
 SUM           -0.665    -0.000    -0.000     0.665


          ATOMIC ORBITAL ELECTRON POPULATIONS

     Atom    s        px        py        pz   
    1  C   1.80694   1.00747   0.45948   0.45946
    2  O   1.79552   1.39007   1.54052   1.54054

 **********************
 *                    *
 * JOB ENDED NORMALLY *
 *                    *
 **********************



 TOTAL JOB TIME:             0.16 SECONDS

 == MOPAC DONE ==
