 *******************************************************************************
 **                                                                           **
 **                              MOPAC v22.0.6                                **
 **                                                                           **
 *******************************************************************************
 **          Digital Object Identifier (DOI): 10.5281/zenodo.6511958          **
 **    Visit the DOI location for information on how to cite this program.    **
 *******************************************************************************

                              INDO CALCULATION RESULTS

 *******************************************************************************
 *  CALCULATION DONE:                                Wed Jul 12 16:25:35 2023  *
 *  INDO       - The INDO Hamiltonian to be used
 *  MRCI       -  Use multi-reference CI (specify ref dets using C.A.S.)
 * C.A.S.=(N,M)-  1 DOUBLY FILLED LEVELS USED IN A
 *             CAS REF DET GENERATION INVOLVING  3 M.O.'S
 *  T=         - A TIME OF 172800.0 SECONDS REQUESTED
 *  DUMP=N     - RESTART FILE WRITTEN EVERY 7200.0 SECONDS REQUESTED
 *******************************************************************************
INDO MRCI C.A.S.=(3,1)
 Carbon Monoxide
 INDO
   ATOM   CHEMICAL          X               Y               Z
  NUMBER   SYMBOL      (ANGSTROMS)     (ANGSTROMS)     (ANGSTROMS)

     1       C          0.00000000      0.00000000      0.00000000   
     2       O          1.17300000      0.00000000      0.00000000   



          CARTESIAN COORDINATES 

    NO.       ATOM           X           Y           Z

     1         C          0.0000      0.0000      0.0000
     2         O          1.1730      0.0000      0.0000

           Empirical Formula: C O  =     2 atoms



      MOLECULAR POINT GROUP   :   C*v 


      RHF CALCULATION, NO. OF DOUBLY OCCUPIED LEVELS = 5

 WARNING: INDO only performs single-point calculations

 Summary of symmetry occupancy in each shell:

 SHELL     
    1    5
    v    3
 TOTAL   8


                     MOLECULAR ORBITALS 






    ROOT NO.    1           2           3           4           5           6

           -43.05652   -19.27644   -14.77940   -14.77940   -14.49534     0.09603
  
  
  S  C   1   0.44267    -0.58677    -0.00000     0.00000    -0.60295     0.00000
 PX  C   1   0.36283     0.01825     0.00000     0.00000     0.61061    -0.00000
 PY  C   1  -0.00000    -0.00000     0.48812    -0.00000    -0.00000     0.87278
 PZ  C   1   0.00000    -0.00000    -0.00000     0.48812     0.00000     0.00000
  
  S  O   2   0.77781     0.52976    -0.00000     0.00000    -0.10914     0.00000
 PX  O   2  -0.25962     0.61215    -0.00000     0.00000    -0.50170     0.00000
 PY  O   2   0.00000     0.00000     0.87278     0.00000    -0.00000    -0.48812
 PZ  O   2  -0.00000     0.00000    -0.00000     0.87278     0.00000    -0.00000




    ROOT NO.    7           8

             0.09603    10.49950
  
  
  S  C   1   0.00000     0.31016
 PX  C   1   0.00000     0.70369
 PY  C   1  -0.00000     0.00000
 PZ  C   1   0.87278    -0.00000
  
  S  O   2   0.00000    -0.32009
 PX  O   2   0.00000     0.55333
 PY  O   2  -0.00000    -0.00000
 PZ  O   2  -0.48812    -0.00000


 Reference determinate nber   1 is ALPHA 1 -   5
 CAS excitations amongst orbitals:   5   6   7
 SINGLE excitations FROM orbs   1 to   5 INTO orbs   6 to   8


 CI excitations=   77:        = 77
 The lowest   77 spin-adapted configurations of multiplicity=  1
     sym   eV   cm**-1 -dets- dipole oscilator X FRAG ....Excitations named from first reference determinate
                       tot  #  Debye  strength

   1     -0.000      0.  1  1  0.4656 0.000000 0  0 (            )->(               )
   2      6.886  55542.  2  1  1.8085 0.063444 1  1 (   5        )->(   7           )
   3      6.886  55542.  2  1  1.8085 0.063444 1  1 (   5        )->(   6           )
   4      6.934  55929.  2  1  2.4836 0.000000 1  1 (   4        )->(   6           )
   5      6.934  55929.  2  1  2.4836 0.000000 1  1 (   3        )->(   7           )
   6     10.542  85024.  2  1  2.4836 0.460623 1  1 (   3        )->(   6           )
   7     10.542  85024.  2  1  2.4836 0.460623 1  1 (   4        )->(   7           )
   8     12.498 100807.  2  1  2.8818 0.234605 1  1 (   2        )->(   6           )
   9     12.498 100807.  2  1  2.8818 0.234605 1  1 (   2        )->(   7           )
  10     13.227 106680.  6  1  1.1407 0.000000 2  1 (   3   5    )->(   6   7       )
  11     13.227 106680.  6  1  1.1407 0.000000 2  1 (   4   5    )->(   6   7       )
  12     13.933 112374.  2  1  3.1514 0.000000 2  1 (   5   5    )->(   6   7       )
  13     13.951 112525.  2  1  1.1407 0.000000 2  1 (   4   5    )->(   6   6       )
  14     13.951 112525.  2  1  1.1407 0.000000 2  1 (   3   5    )->(   7   7       )
  15     14.294 115286.  1  1  3.1514 0.000000 2  0 (   5   5    )->(   6   6       )
  16     14.294 115286.  1  1  3.1514 0.000000 2  0 (   5   5    )->(   7   7       )
  17     15.009 121058.  2  1  1.1407 0.000000 2  1 (   3   5    )->(   6   6       )
  18     15.009 121058.  2  1  1.1407 0.000000 2  1 (   4   5    )->(   7   7       )
  19     17.437 140642.  2  1  1.1095 0.001563 1  1 (   4        )->(   8           )
  20     17.437 140642.  2  1  1.1095 0.001563 1  1 (   3        )->(   8           )
  21     17.658 142421.  6  2  1.1407 0.000000 2  1 (   3   5    )->(   6   7       )
  22     17.658 142421.  6  2  1.1407 0.000000 2  1 (   4   5    )->(   6   7       )
  23     18.450 148810.  2  1  3.1826 0.421694 1  1 (   5        )->(   8           )
  24     18.996 153215.  6  1  1.5389 0.000000 2  1 (   2   5    )->(   6   7       )
  25     20.732 167214.  6  2  1.5389 0.000000 2  1 (   2   5    )->(   6   7       )
  26     21.093 170126.  2  1  1.5389 0.000000 2  1 (   2   5    )->(   6   6       )
  27     21.093 170126.  2  1  1.5389 0.000000 2  1 (   2   5    )->(   7   7       )
  28     22.716 183219.  2  1  0.2022 0.000000 3  1 (   3   5   5)->(   6   6   7   )
  29     22.716 183219.  2  1  0.2022 0.000000 3  1 (   4   5   5)->(   6   7   7   )
  30     23.036 185800.  2  1  1.5078 0.006330 1  1 (   2        )->(   8           )
  31     24.156 194833.  6  1  0.2334 0.000000 2  1 (   4   5    )->(   7   8       )
  32     24.156 194833.  6  1  0.2334 0.000000 2  1 (   3   5    )->(   6   8       )
  33     24.316 196118.  6  1  0.2334 0.000000 2  1 (   3   5    )->(   7   8       )
  34     24.316 196118.  6  1  0.2334 0.000000 2  1 (   4   5    )->(   6   8       )
  35     25.183 203119.  6  2  0.2334 0.000000 2  1 (   3   5    )->(   7   8       )
  36     25.183 203119.  6  2  0.2334 0.000000 2  1 (   4   5    )->(   6   8       )
  37     25.266 203781.  2  1  0.2022 0.000000 3  1 (   4   5   5)->(   6   6   7   )
  38     25.266 203781.  2  1  0.2022 0.000000 3  1 (   3   5   5)->(   6   7   7   )
  39     26.047 210087.  2  1  4.5255 0.000000 2  1 (   5   5    )->(   6   8       )
  40     26.047 210087.  2  1  4.5255 0.000000 2  1 (   5   5    )->(   7   8       )
  41     26.883 216825.  2  1  0.1960 0.000000 3  1 (   2   5   5)->(   6   6   7   )
  42     26.883 216825.  2  1  0.1960 0.000000 3  1 (   2   5   5)->(   6   7   7   )
  43     28.453 229489.  6  2  0.2334 0.000000 2  1 (   4   5    )->(   7   8       )
  44     28.453 229489.  6  2  0.2334 0.000000 2  1 (   3   5    )->(   6   8       )
  45     30.197 243559.  6  1  0.1649 0.000000 2  1 (   2   5    )->(   7   8       )
  46     30.197 243559.  6  1  0.1649 0.000000 2  1 (   2   5    )->(   6   8       )
  47     32.231 259960.  6  2  0.1649 0.000000 2  1 (   2   5    )->(   6   8       )
  48     32.231 259960.  6  2  0.1649 0.000000 2  1 (   2   5    )->(   7   8       )
  49     32.310 260600.  6  1  1.5763 0.000000 3  1 (   4   5   5)->(   6   7   8   )
  50     32.310 260600.  6  1  1.5763 0.000000 3  1 (   3   5   5)->(   6   7   8   )
  51     33.276 268392.  2  1  1.5763 0.000000 3  1 (   4   5   5)->(   6   6   8   )
  52     33.276 268392.  2  1  1.5763 0.000000 3  1 (   3   5   5)->(   7   7   8   )
  53     34.334 276925.  2  1  1.5763 0.000000 3  1 (   4   5   5)->(   7   7   8   )
  54     34.334 276925.  2  1  1.5763 0.000000 3  1 (   3   5   5)->(   6   6   8   )
  55     36.230 292212.  6  2  1.5763 0.000000 3  1 (   4   5   5)->(   6   7   8   )
  56     36.230 292212.  6  2  1.5763 0.000000 3  1 (   3   5   5)->(   6   7   8   )
  57     36.382 293445.  2  1  2.0541 0.018654 1  1 (   1        )->(   6           )
  58     36.382 293445.  2  1  2.0541 0.018654 1  1 (   1        )->(   7           )
  59     38.174 307899.  6  1  1.1780 0.000000 3  1 (   2   5   5)->(   6   7   8   )
  60     38.536 310811.  2  1  1.1780 0.000000 3  1 (   2   5   5)->(   6   6   8   )
  61     38.536 310811.  2  1  1.1780 0.000000 3  1 (   2   5   5)->(   7   7   8   )
  62     38.680 311977.  6  2  1.1780 0.000000 3  1 (   2   5   5)->(   6   7   8   )
  63     41.794 337090.  6  1  0.7113 0.000000 2  1 (   1   5    )->(   6   7       )
  64     42.155 340002.  2  1  0.7113 0.000000 2  1 (   1   5    )->(   6   6       )
  65     42.155 340002.  2  1  0.7113 0.000000 2  1 (   1   5    )->(   7   7       )
  66     43.534 351130.  6  2  0.7113 0.000000 2  1 (   1   5    )->(   6   7       )
  67     49.739 401171.  2  1  0.6801 0.068685 1  1 (   1        )->(   8           )
  68     50.337 405999.  2  1  0.6316 0.000000 3  1 (   1   5   5)->(   6   7   7   )
  69     50.337 405999.  2  1  0.6316 0.000000 3  1 (   1   5   5)->(   6   6   7   )
  70     51.939 418914.  6  1  0.6628 0.000000 2  1 (   1   5    )->(   7   8       )
  71     51.939 418914.  6  1  0.6628 0.000000 2  1 (   1   5    )->(   6   8       )
  72     57.126 460755.  6  2  0.6628 0.000000 2  1 (   1   5    )->(   6   8       )
  73     57.126 460755.  6  2  0.6628 0.000000 2  1 (   1   5    )->(   7   8       )
  74     60.352 486775.  6  1  2.0057 0.000000 3  1 (   1   5   5)->(   6   7   8   )
  75     64.448 519806.  6  2  2.0057 0.000000 3  1 (   1   5   5)->(   6   7   8   )
  76     64.809 522718.  2  1  2.0057 0.000000 3  1 (   1   5   5)->(   6   6   8   )
  77     64.809 522718.  2  1  2.0057 0.000000 3  1 (   1   5   5)->(   7   7   8   )

 Depression of ground-state after CI=      -3358. cm**-1 Energy=  -462.7677043 eV
 Dipole moment= -0.491017  0.000000  0.000000 tot=  0.491017 Debyes


  CI trans.  energy frequency wavelength oscillator--------- polarization---------  dipole  ------ components-----
 st.  symm.    eV      cm - 1       nm      strength       x          y         z       moment     x       y       z 

   2      6.8770965    55468.    180.29  0.000000                                   1.973126   1.973  -0.000   0.000
   3      6.9768087    56272.    177.71  0.041302   0.000000  -0.999193  -0.040158  1.498484  -1.498  -0.000  -0.000
   4      6.9768087    56272.    177.71  0.041302  -0.000000  -0.040158   0.999193  1.498484  -1.498   0.000  -0.000
   5      7.2409112    58402.    171.23  0.000000                                   1.915962   1.916   0.000  -0.000
   6      7.2409112    58402.    171.23  0.000000                                   1.915962   1.916   0.000  -0.000
   7     11.2392892    90651.    110.31  0.166153  -0.000000  -0.039608  -0.999215  1.906694   1.907   0.000   0.000
   8     11.2392892    90651.    110.31  0.166153   0.000000   0.999215  -0.039608  1.906694   1.907   0.000  -0.000
   9     12.2228962    98585.    101.44  0.530306  -1.000000   0.000000   0.000000  1.662442   1.662  -0.000  -0.000
  10     13.7356148   110785.     90.26  0.000000                                   1.019470   1.019  -0.000  -0.000
  11     13.7356148   110785.     90.26  0.000000                                   1.019470   1.019  -0.000   0.000
  12     13.9879183   112820.     88.64  0.043569  -0.000000  -0.028603  -0.999591  1.117758   1.118   0.000   0.000
  13     13.9879183   112820.     88.64  0.043569   0.000000  -0.999591   0.028603  1.117758   1.118  -0.000   0.000
  14     14.2943775   115292.     86.74  0.000000                                   3.101883  -3.102   0.000  -0.000
  15     14.2943775   115292.     86.74  0.000000                                   3.101883  -3.102   0.000  -0.000
  16     14.7258624   118772.     84.19  0.005538   0.000000  -0.018777   0.999824  1.053625   1.054   0.000   0.000
  17     14.7258624   118772.     84.19  0.005538   0.000000  -0.999824  -0.018777  1.053625   1.054  -0.000  -0.000
  18     15.0901605   121711.     82.16  0.010110   1.000000   0.000000   0.000000  2.951133  -2.951   0.000   0.000
  19     17.6880053   142664.     70.09  0.002030  -0.000000  -0.999803  -0.019825  1.064373   1.064  -0.000  -0.000
  20     17.6880053   142664.     70.09  0.002030   0.000000  -0.019825   0.999803  1.064373   1.064   0.000  -0.000
  21     18.9573582   152902.     65.40  0.551327  -1.000000   0.000000  -0.000000  2.031599  -2.032   0.000  -0.000
  22     18.9722209   153022.     65.35  0.000000                                   1.166045   1.166   0.000  -0.000
  23     19.3928287   156414.     63.93  0.028038  -0.000000  -0.087089  -0.996201  1.174373   1.174  -0.000   0.000
  24     19.3928287   156414.     63.93  0.028038  -0.000000  -0.996201   0.087089  1.174373   1.174   0.000  -0.000
  25     19.9473429   160887.     62.16  0.000000                                   0.654989   0.655   0.000   0.000
  26     19.9473429   160887.     62.16  0.000000                                   0.654989   0.655  -0.000   0.000
  27     20.9229049   168755.     59.26  0.083043   1.000000  -0.000000   0.000000  0.023099  -0.023   0.000  -0.000
  28     21.5189145   173562.     57.62  0.000000                                   0.105540   0.106  -0.000  -0.000
  29     22.7688055   183643.     54.45  0.320192   1.000000   0.000000  -0.000000  1.505661   1.506  -0.000   0.000
  30     24.6436271   198765.     50.31  0.000000                                   0.122027  -0.122   0.000   0.000
  31     24.6436271   198765.     50.31  0.000000                                   0.122027  -0.122   0.000  -0.000
  32     24.7699806   199784.     50.05  0.000000                                   0.038938   0.039   0.000  -0.000
  33     24.8649346   200550.     49.86  0.001289  -1.000000  -0.000000  -0.000000  0.044562  -0.045   0.000  -0.000
  34     25.6315746   206733.     48.37  0.000000                                   0.297331   0.297   0.000   0.000
  35     25.6315746   206733.     48.37  0.000000                                   0.297331   0.297   0.000   0.000
  36     25.6451196   206842.     48.35  0.000000                                   0.018964  -0.019   0.000  -0.000
  37     26.2262054   211529.     47.27  0.000000                                   0.418314   0.418   0.000   0.000
  38     26.2262054   211529.     47.27  0.000000                                   0.418314   0.418   0.000   0.000
  39     26.2782256   211949.     47.18  0.003368  -0.000000  -0.064221   0.997936  2.810061  -2.810  -0.000   0.000
  40     26.2782256   211949.     47.18  0.003368   0.000000   0.997936   0.064221  2.810061  -2.810  -0.000  -0.000
  41     27.1514016   218991.     45.66  0.004054  -1.000000   0.000000  -0.000000  0.307429   0.307   0.000  -0.000
  42     27.5888925   222520.     44.94  0.000605   0.000000   0.056390   0.998409  0.522231  -0.522  -0.000  -0.000
  43     27.5888925   222520.     44.94  0.000605   0.000000   0.998409  -0.056390  0.522231  -0.522  -0.000   0.000
  44     30.7590385   248089.     40.31  0.000033   0.000000  -0.978070  -0.208276  0.098447   0.098   0.000   0.000
  45     30.7590385   248089.     40.31  0.000033   0.000000  -0.208276   0.978070  0.098447   0.098  -0.000   0.000
  46     31.2265098   251859.     39.70  0.000117   0.000000   0.157231  -0.987562  0.704217  -0.704   0.000   0.000
  47     31.2265098   251859.     39.70  0.000117  -0.000000  -0.987562  -0.157231  0.704217  -0.704   0.000   0.000
  48     32.7607419   264234.     37.85  0.000027   0.000000   0.998901   0.046867  1.239590  -1.240   0.000  -0.000
  49     32.7607419   264234.     37.85  0.000027  -0.000000  -0.046867   0.998901  1.239590  -1.240   0.000  -0.000
  50     33.1054535   267014.     37.45  0.000000                                   1.455068  -1.455   0.000   0.000
  51     33.1054535   267014.     37.45  0.000000                                   1.455068  -1.455   0.000  -0.000
  52     33.2676824   268323.     37.27  0.017829   1.000000  -0.000000   0.000000  0.142299   0.142  -0.000   0.000
  53     34.0843491   274910.     36.38  0.000006  -0.000000  -0.036112   0.999348  1.430530  -1.431   0.000  -0.000
  54     34.0843491   274910.     36.38  0.000006   0.000000   0.999348   0.036112  1.430530  -1.431   0.000  -0.000
  55     36.6590059   295676.     33.82  0.016697  -0.000000   0.250798   0.968039  1.625761   1.626   0.000  -0.000
  56     36.6590059   295676.     33.82  0.016697  -0.000000   0.968039  -0.250798  1.625761   1.626   0.000  -0.000
  57     38.7799110   312782.     31.97  0.000000                                   1.185027  -1.185   0.000  -0.000
  58     38.7799110   312782.     31.97  0.000000                                   1.185027  -1.185   0.000  -0.000
  59     39.0571680   315018.     31.74  0.000000                                   1.299438  -1.299   0.000   0.000
  60     39.6281732   319624.     31.29  0.000011   1.000000  -0.000000  -0.000000  1.191683  -1.192   0.000  -0.000
  61     39.9771766   322438.     31.01  0.000030  -0.000000   0.996942   0.078141  1.606802  -1.607  -0.000   0.000
  62     39.9771766   322438.     31.01  0.000030   0.000000  -0.078141   0.996942  1.606802  -1.607  -0.000  -0.000
  63     42.3290958   341408.     29.29  0.000000                                   0.974943   0.975   0.000   0.000
  64     42.3290958   341408.     29.29  0.000000                                   0.974943   0.975  -0.000   0.000
  65     43.1038453   347657.     28.76  0.000479  -1.000000  -0.000000   0.000000  0.949824   0.950  -0.000  -0.000
  66     43.9939919   354836.     28.18  0.000000                                   0.586982   0.587   0.000  -0.000
  67     50.7178475   409068.     24.45  0.299734  -1.000000   0.000000  -0.000000  0.542601   0.543   0.000  -0.000
  68     50.9369062   410835.     24.34  0.000035  -0.000000   0.995981  -0.089567  0.500975  -0.501  -0.000   0.000
  69     50.9369062   410835.     24.34  0.000035  -0.000000  -0.089567  -0.995981  0.500975  -0.501  -0.000  -0.000
  70     52.6926246   424996.     23.53  0.001656  -0.000000  -0.213411   0.976962  0.037924  -0.038   0.000   0.000
  71     52.6926246   424996.     23.53  0.001656   0.000000   0.976962   0.213411  0.037924  -0.038   0.000  -0.000
  72     58.0559056   468254.     21.36  0.000067   0.000000   0.950697   0.310122  0.717022  -0.717   0.000  -0.000
  73     58.0559056   468254.     21.36  0.000067   0.000000  -0.310122   0.950697  0.717022  -0.717   0.000   0.000
  74     60.9080652   491258.     20.36  0.000000                                   1.671182  -1.671  -0.000  -0.000
  75     65.1845896   525751.     19.02  0.000000                                   2.122971  -2.123   0.000   0.000
  76     65.1845896   525751.     19.02  0.000000                                   2.122971  -2.123   0.000   0.000
  77     66.0141454   532441.     18.78  0.000108   1.000000  -0.000000   0.000000  2.107915  -2.108   0.000  -0.000

 Polarizability (au  ) xx=   13.50 xy=    0.00 yy=    5.58 xz=    0.00 yz=    0.00 zz=    5.58
 Polarizability (A**3) xx=    2.00 xy=    0.00 yy=    0.83 xz=    0.00 yz=    0.00 zz=    0.83


 Major CI contributions to CI states

State    1  0.0000     CI coeff  CI percent
    Config       1  -0.99156975  0.98321056
    Config      15   0.05499856  0.00302484
    Config      16   0.05499856  0.00302484
    Config      43   0.06272418  0.00393432
    Config      44   0.06272418  0.00393432
 Total coeff printed             0.99712889
  
State    2  6.8771     CI coeff  CI percent
    Config       4  -0.70239243  0.49335513
    Config       5   0.70239243  0.49335513
    Config      28  -0.04358188  0.00189938
    Config      29   0.04358188  0.00189938
    Config      33   0.04488044  0.00201425
    Config      34  -0.04488044  0.00201425
    Config      35   0.05214648  0.00271926
    Config      36  -0.05214648  0.00271926
 Total coeff printed             0.99997603
  
State    3  6.9768     CI coeff  CI percent
    Config       3   0.99067935  0.98144557
    Config       8  -0.06766104  0.00457802
    Config      47  -0.06505685  0.00423239
 Total coeff printed             0.99025598
  
State    4  6.9768     CI coeff  CI percent
    Config       2   0.99067935  0.98144557
    Config       9   0.06766104  0.00457802
    Config      48   0.06505685  0.00423239
 Total coeff printed             0.99025598
  
State    5  7.2409     CI coeff  CI percent
    Config       4  -0.69817688  0.48745096
    Config       5  -0.69817688  0.48745096
    Config      12  -0.06035088  0.00364223
    Config      25  -0.09067669  0.00822226
    Config      28   0.04268354  0.00182188
    Config      29   0.04268354  0.00182188
    Config      33  -0.04479074  0.00200621
    Config      34  -0.04479074  0.00200621
    Config      35  -0.05208263  0.00271260
    Config      36  -0.05208263  0.00271260
 Total coeff printed             0.99984780
  
State    6  7.2409     CI coeff  CI percent
    Config       6  -0.69817688  0.48745096
    Config       7  -0.69817688  0.48745096
    Config      15  -0.04267452  0.00182111
    Config      16   0.04267452  0.00182111
    Config      26   0.06411810  0.00411113
    Config      27  -0.06411810  0.00411113
    Config      37  -0.04268354  0.00182188
    Config      38   0.04268354  0.00182188
    Config      43  -0.06843664  0.00468357
    Config      44   0.06843664  0.00468357
 Total coeff printed             0.99977733
  
State    7 11.2393     CI coeff  CI percent
    Config       2  -0.05073283  0.00257382
    Config       9   0.84227116  0.70942071
    Config      10   0.31661053  0.10024222
    Config      13  -0.04588784  0.00210569
    Config      18   0.41077332  0.16873472
    Config      21  -0.08907042  0.00793354
    Config      41   0.05158580  0.00266109
    Config      45   0.04776775  0.00228176
 Total coeff printed             0.99595356
  
State    8 11.2393     CI coeff  CI percent
    Config       3  -0.05073283  0.00257382
    Config       8  -0.84227116  0.70942071
    Config      11  -0.31661053  0.10024222
    Config      14  -0.04588784  0.00210569
    Config      17   0.41077332  0.16873472
    Config      22  -0.08907042  0.00793354
    Config      42  -0.05158580  0.00266109
    Config      46  -0.04776775  0.00228176
 Total coeff printed             0.99595356
  
State    9 12.2229     CI coeff  CI percent
    Config       6   0.64072346  0.41052655
    Config       7  -0.64072346  0.41052655
    Config      15   0.07553161  0.00570502
    Config      16   0.07553161  0.00570502
    Config      23  -0.36523926  0.13339971
    Config      26  -0.05296109  0.00280488
    Config      27  -0.05296109  0.00280488
    Config      30   0.11559739  0.01336276
    Config      43  -0.05663551  0.00320758
    Config      44  -0.05663551  0.00320758
    Config      67   0.07602466  0.00577975
 Total coeff printed             0.99703029
  
State   10 13.7356     CI coeff  CI percent
    Config      10  -0.63139534  0.39866008
    Config      13  -0.49960577  0.24960592
    Config      18   0.49960577  0.24960592
    Config      21   0.31709899  0.10055177
 Total coeff printed             0.99842369
  
State   11 13.7356     CI coeff  CI percent
    Config      11   0.63139534  0.39866008
    Config      14  -0.49960577  0.24960592
    Config      17   0.49960577  0.24960592
    Config      22   0.31709899  0.10055177
 Total coeff printed             0.99842369
  
State   12 13.9879     CI coeff  CI percent
    Config       2  -0.06673463  0.00445351
    Config       9   0.35600888  0.12674232
    Config      10  -0.70433225  0.49608391
    Config      13   0.46219981  0.21362866
    Config      18  -0.22046924  0.04860669
    Config      21  -0.32685915  0.10683691
 Total coeff printed             0.99635200
  
State   13 13.9879     CI coeff  CI percent
    Config       3   0.06673463  0.00445351
    Config       8   0.35600888  0.12674232
    Config      11  -0.70433225  0.49608391
    Config      14  -0.46219981  0.21362866
    Config      17   0.22046924  0.04860669
    Config      22   0.32685915  0.10683691
 Total coeff printed             0.99635200
  
State   14 14.2944     CI coeff  CI percent
    Config      12  -0.99392490  0.98788671
    Config      25   0.05236291  0.00274187
    Config      28  -0.04789887  0.00229430
    Config      29  -0.04789887  0.00229430
 Total coeff printed             0.99521719
  
State   15 14.2944     CI coeff  CI percent
    Config      15  -0.70281104  0.49394335
    Config      16   0.70281104  0.49394335
    Config      37   0.04789887  0.00229430
    Config      38  -0.04789887  0.00229430
 Total coeff printed             0.99247531
  
State   16 14.7259     CI coeff  CI percent
    Config       9  -0.17752830  0.03151630
    Config      13   0.72701009  0.52854368
    Config      18   0.51738479  0.26768702
    Config      19   0.05867831  0.00344314
    Config      21   0.40032095  0.16025686
    Config      41  -0.06914239  0.00478067
 Total coeff printed             0.99622767
  
State   17 14.7259     CI coeff  CI percent
    Config       8   0.17752830  0.03151630
    Config      14   0.72701009  0.52854368
    Config      17   0.51738479  0.26768702
    Config      20  -0.05867831  0.00344314
    Config      22   0.40032095  0.16025686
    Config      42   0.06914239  0.00478067
 Total coeff printed             0.99622767
  
State   18 15.0902     CI coeff  CI percent
    Config       1  -0.07542680  0.00568920
    Config       6   0.04154534  0.00172602
    Config       7  -0.04154534  0.00172602
    Config      15  -0.69604304  0.48447591
    Config      16  -0.69604304  0.48447591
    Config      23  -0.13325201  0.01775610
 Total coeff printed             0.99584915
  
State   19 17.6880     CI coeff  CI percent
    Config      14   0.04632385  0.00214590
    Config      20   0.99133082  0.98273680
    Config      22   0.05029540  0.00252963
    Config      47  -0.06097771  0.00371828
    Config      52   0.05339816  0.00285136
    Config      54   0.05558831  0.00309006
 Total coeff printed             0.99707203
  
State   20 17.6880     CI coeff  CI percent
    Config      13   0.04632385  0.00214590
    Config      19  -0.99133082  0.98273680
    Config      21   0.05029540  0.00252963
    Config      48   0.06097771  0.00371828
    Config      51  -0.05339816  0.00285136
    Config      53  -0.05558831  0.00309006
 Total coeff printed             0.99707203
  
State   21 18.9574     CI coeff  CI percent
    Config       6   0.18686143  0.03491719
    Config       7  -0.18686143  0.03491719
    Config      15  -0.04990718  0.00249073
    Config      16  -0.04990718  0.00249073
    Config      23   0.78757883  0.62028042
    Config      26  -0.27683598  0.07663816
    Config      27  -0.27683598  0.07663816
    Config      30   0.30854348  0.09519908
    Config      31   0.12554205  0.01576081
    Config      32   0.12554205  0.01576081
    Config      37   0.08613037  0.00741844
    Config      38   0.08613037  0.00741844
    Config      43   0.04771207  0.00227644
    Config      44   0.04771207  0.00227644
    Config      67   0.06389810  0.00408297
 Total coeff printed             0.99856600
  
State   22 18.9722     CI coeff  CI percent
    Config      24   0.91212648  0.83197472
    Config      28   0.28856362  0.08326896
    Config      29  -0.28856362  0.08326896
 Total coeff printed             0.99851265
  
State   23 19.3928     CI coeff  CI percent
    Config       9   0.32063279  0.10280539
    Config      17   0.04260881  0.00181551
    Config      18  -0.48739534  0.23755422
    Config      21   0.75087971  0.56382033
    Config      22  -0.06564299  0.00430900
    Config      40  -0.25727042  0.06618807
    Config      45  -0.08437941  0.00711988
    Config      48   0.07338475  0.00538532
    Config      73   0.07808830  0.00609778
 Total coeff printed             0.99509551
  
State   24 19.3928     CI coeff  CI percent
    Config       8   0.32063279  0.10280539
    Config      17   0.48739534  0.23755422
    Config      18   0.04260881  0.00181551
    Config      21  -0.06564299  0.00430900
    Config      22  -0.75087971  0.56382033
    Config      39  -0.25727042  0.06618807
    Config      46  -0.08437941  0.00711988
    Config      47   0.07338475  0.00538532
    Config      72   0.07808830  0.00609778
 Total coeff printed             0.99509551
  
State   25 19.9473     CI coeff  CI percent
    Config       6  -0.07964223  0.00634289
    Config       7  -0.07964223  0.00634289
    Config      15   0.05046046  0.00254626
    Config      16  -0.05046046  0.00254626
    Config      26  -0.63034463  0.39733436
    Config      27   0.63034463  0.39733436
    Config      37   0.30444503  0.09268677
    Config      38  -0.30444503  0.09268677
 Total coeff printed             0.99782055
  
State   26 19.9473     CI coeff  CI percent
    Config       4  -0.07964223  0.00634289
    Config       5  -0.07964223  0.00634289
    Config      12   0.07136187  0.00509252
    Config      25   0.89144193  0.79466872
    Config      28  -0.30444503  0.09268677
    Config      29  -0.30444503  0.09268677
    Config      63  -0.04610433  0.00212561
 Total coeff printed             0.99994616
  
State   27 20.9229     CI coeff  CI percent
    Config       6  -0.10324555  0.01065964
    Config       7   0.10324555  0.01065964
    Config      15   0.05180623  0.00268388
    Config      16   0.05180623  0.00268388
    Config      23  -0.28892655  0.08347855
    Config      26  -0.56455352  0.31872068
    Config      27  -0.56455352  0.31872068
    Config      30  -0.21384503  0.04572970
    Config      31  -0.09585955  0.00918905
    Config      32  -0.09585955  0.00918905
    Config      37   0.30135584  0.09081534
    Config      38   0.30135584  0.09081534
 Total coeff printed             0.99334545
  
State   28 21.5189     CI coeff  CI percent
    Config       4  -0.04101779  0.00168246
    Config       5   0.04101779  0.00168246
    Config      24  -0.40917468  0.16742392
    Config      28   0.64302245  0.41347787
    Config      29  -0.64302245  0.41347787
 Total coeff printed             0.99774458
  
State   29 22.7688     CI coeff  CI percent
    Config       6  -0.15718340  0.02470662
    Config       7   0.15718340  0.02470662
    Config      23  -0.36601893  0.13396986
    Config      26  -0.04312253  0.00185955
    Config      27  -0.04312253  0.00185955
    Config      30   0.77920294  0.60715722
    Config      31   0.26635136  0.07094304
    Config      32   0.26635136  0.07094304
    Config      37   0.05926800  0.00351270
    Config      38   0.05926800  0.00351270
    Config      43   0.14232839  0.02025737
    Config      44   0.14232839  0.02025737
    Config      60  -0.05489447  0.00301340
    Config      61  -0.05489447  0.00301340
    Config      67  -0.08279915  0.00685570
 Total coeff printed             0.99656815
  
State   30 24.6436     CI coeff  CI percent
    Config      25  -0.04022099  0.00161773
    Config      28  -0.05066173  0.00256661
    Config      29  -0.05066173  0.00256661
    Config      33   0.68039970  0.46294375
    Config      34   0.68039970  0.46294375
    Config      35  -0.17858911  0.03189407
    Config      36  -0.17858911  0.03189407
 Total coeff printed             0.99642659
  
State   31 24.6436     CI coeff  CI percent
    Config      31   0.65658848  0.43110843
    Config      32  -0.65658848  0.43110843
    Config      37   0.05066173  0.00256661
    Config      38  -0.05066173  0.00256661
    Config      43   0.25244681  0.06372939
    Config      44  -0.25244681  0.06372939
 Total coeff printed             0.99480886
  
State   32 24.7700     CI coeff  CI percent
    Config       4  -0.04978679  0.00247872
    Config       5   0.04978679  0.00247872
    Config      33  -0.69824260  0.48754273
    Config      34   0.69824260  0.48754273
    Config      35  -0.08998524  0.00809734
    Config      36   0.08998524  0.00809734
 Total coeff printed             0.99623760
  
State   33 24.8649     CI coeff  CI percent
    Config      23  -0.05068826  0.00256930
    Config      30  -0.39451456  0.15564174
    Config      31   0.63289026  0.40055008
    Config      32   0.63289026  0.40055008
    Config      43  -0.13577045  0.01843362
    Config      44  -0.13577045  0.01843362
 Total coeff printed             0.99617843
  
State   34 25.6316     CI coeff  CI percent
    Config       4  -0.04640655  0.00215357
    Config       5  -0.04640655  0.00215357
    Config      25  -0.15921239  0.02534859
    Config      26  -0.08866683  0.00786181
    Config      27   0.08866683  0.00786181
    Config      28  -0.22270052  0.04959552
    Config      29  -0.22270052  0.04959552
    Config      31   0.15679968  0.02458614
    Config      32  -0.15679968  0.02458614
    Config      33   0.10011418  0.01002285
    Config      34   0.10011418  0.01002285
    Config      35   0.47998786  0.23038834
    Config      36   0.47998786  0.23038834
    Config      37  -0.17539634  0.03076388
    Config      38   0.17539634  0.03076388
    Config      43  -0.35290202  0.12453984
    Config      44   0.35290202  0.12453984
    Config      59  -0.07629773  0.00582134
    Config      60  -0.04249090  0.00180548
    Config      61   0.04249090  0.00180548
 Total coeff printed             0.99460477
  
State   35 25.6316     CI coeff  CI percent
    Config       6  -0.04640655  0.00215357
    Config       7  -0.04640655  0.00215357
    Config      25  -0.12539383  0.01572361
    Config      26   0.11258016  0.01267429
    Config      27  -0.11258016  0.01267429
    Config      28  -0.17539634  0.03076388
    Config      29  -0.17539634  0.03076388
    Config      31  -0.19908836  0.03963617
    Config      32   0.19908836  0.03963617
    Config      33   0.07884877  0.00621713
    Config      34   0.07884877  0.00621713
    Config      35   0.37803287  0.14290885
    Config      36   0.37803287  0.14290885
    Config      37   0.22270052  0.04959552
    Config      38  -0.22270052  0.04959552
    Config      43   0.44807926  0.20077502
    Config      44  -0.44807926  0.20077502
    Config      59  -0.06009120  0.00361095
    Config      60   0.05395064  0.00291067
    Config      61  -0.05395064  0.00291067
 Total coeff printed             0.99460477
  
State   36 25.6451     CI coeff  CI percent
    Config       4   0.04496374  0.00202174
    Config       5  -0.04496374  0.00202174
    Config      33  -0.09165029  0.00839978
    Config      34   0.09165029  0.00839978
    Config      35   0.69821747  0.48750763
    Config      36  -0.69821747  0.48750763
    Config      62   0.04538636  0.00205992
 Total coeff printed             0.99791822
  
State   37 26.2262     CI coeff  CI percent
    Config      26  -0.26953200  0.07264750
    Config      27   0.26953200  0.07264750
    Config      31  -0.06795210  0.00461749
    Config      32   0.06795210  0.00461749
    Config      37  -0.55867597  0.31211884
    Config      38   0.55867597  0.31211884
    Config      43   0.32134456  0.10326233
    Config      44  -0.32134456  0.10326233
    Config      60  -0.05555576  0.00308644
    Config      61   0.05555576  0.00308644
    Config      76  -0.05040391  0.00254055
    Config      77   0.05040391  0.00254055
 Total coeff printed             0.99654630
  
State   38 26.2262     CI coeff  CI percent
    Config      25   0.38117581  0.14529500
    Config      28   0.55867597  0.31211884
    Config      29   0.55867597  0.31211884
    Config      33   0.13253404  0.01756527
    Config      34   0.13253404  0.01756527
    Config      35   0.30052378  0.09031454
    Config      36   0.30052378  0.09031454
    Config      59   0.07856771  0.00617288
    Config      63  -0.04073423  0.00165928
    Config      75   0.07128189  0.00508111
 Total coeff printed             0.99820558
  
State   39 26.2782     CI coeff  CI percent
    Config       9  -0.13876624  0.01925607
    Config      18   0.10422807  0.01086349
    Config      21  -0.12193614  0.01486842
    Config      39   0.05469401  0.00299143
    Config      40  -0.84989792  0.72232648
    Config      41   0.38488554  0.14813688
    Config      45   0.24461982  0.05983886
    Config      48   0.07597850  0.00577273
    Config      50   0.05455052  0.00297576
    Config      53  -0.05534230  0.00306277
    Config      70   0.05003524  0.00250353
    Config      73  -0.06036807  0.00364430
 Total coeff printed             0.99624072
  
State   40 26.2782     CI coeff  CI percent
    Config       8  -0.13876624  0.01925607
    Config      17  -0.10422807  0.01086349
    Config      22   0.12193614  0.01486842
    Config      39  -0.84989792  0.72232648
    Config      40  -0.05469401  0.00299143
    Config      42   0.38488554  0.14813688
    Config      46   0.24461982  0.05983886
    Config      47   0.07597850  0.00577273
    Config      49  -0.05455052  0.00297576
    Config      54  -0.05534230  0.00306277
    Config      71   0.05003524  0.00250353
    Config      72  -0.06036807  0.00364430
 Total coeff printed             0.99624072
  
State   41 27.1514     CI coeff  CI percent
    Config       6   0.07185602  0.00516329
    Config       7  -0.07185602  0.00516329
    Config      23   0.04552501  0.00207253
    Config      26   0.30775568  0.09471356
    Config      27   0.30775568  0.09471356
    Config      37   0.62279056  0.38786809
    Config      38   0.62279056  0.38786809
    Config      60   0.08535772  0.00728594
    Config      61   0.08535772  0.00728594
    Config      76   0.05715913  0.00326717
    Config      77   0.05715913  0.00326717
 Total coeff printed             0.99866860
  
State   42 27.5889     CI coeff  CI percent
    Config      13  -0.04107859  0.00168745
    Config      21  -0.11707872  0.01370743
    Config      40  -0.35156590  0.12359858
    Config      41  -0.91478194  0.83682600
    Config      42  -0.05166696  0.00266947
    Config      45   0.11732518  0.01376520
 Total coeff printed             0.99225412
  
State   43 27.5889     CI coeff  CI percent
    Config      14   0.04107859  0.00168745
    Config      22   0.11707872  0.01370743
    Config      39  -0.35156590  0.12359858
    Config      41   0.05166696  0.00266947
    Config      42  -0.91478194  0.83682600
    Config      46   0.11732518  0.01376520
 Total coeff printed             0.99225412
  
State   44 30.7590     CI coeff  CI percent
    Config      17   0.08733406  0.00762724
    Config      22  -0.11617844  0.01349743
    Config      39   0.24272014  0.05891307
    Config      40   0.05168627  0.00267147
    Config      45   0.18520299  0.03430015
    Config      46   0.86971832  0.75640995
    Config      47  -0.05580323  0.00311400
    Config      49  -0.25133124  0.06316739
    Config      50   0.05351997  0.00286439
    Config      52   0.04360979  0.00190181
    Config      54  -0.16261579  0.02644390
    Config      55  -0.12279609  0.01507888
    Config      57   0.07443755  0.00554095
    Config      72   0.06059768  0.00367208
 Total coeff printed             0.99520271
  
State   45 30.7590     CI coeff  CI percent
    Config      18   0.08733406  0.00762724
    Config      21  -0.11617844  0.01349743
    Config      39   0.05168627  0.00267147
    Config      40  -0.24272014  0.05891307
    Config      45  -0.86971832  0.75640995
    Config      46   0.18520299  0.03430015
    Config      48   0.05580323  0.00311400
    Config      49  -0.05351997  0.00286439
    Config      50  -0.25133124  0.06316739
    Config      51  -0.04360979  0.00190181
    Config      53   0.16261579  0.02644390
    Config      56   0.12279609  0.01507888
    Config      58  -0.07443755  0.00554095
    Config      73  -0.06059768  0.00367208
 Total coeff printed             0.99520271
  
State   46 31.2265     CI coeff  CI percent
    Config      19  -0.07117183  0.00506543
    Config      40  -0.09496306  0.00901798
    Config      47   0.13952492  0.01946720
    Config      48  -0.87634963  0.76798868
    Config      53   0.26856351  0.07212636
    Config      54  -0.04275839  0.00182828
    Config      55   0.05314479  0.00282437
    Config      56  -0.33380000  0.11142244
    Config      70  -0.04744358  0.00225089
 Total coeff printed             0.99199163
  
State   47 31.2265     CI coeff  CI percent
    Config      20  -0.07117183  0.00506543
    Config      39  -0.09496306  0.00901798
    Config      47  -0.87634963  0.76798868
    Config      48  -0.13952492  0.01946720
    Config      53   0.04275839  0.00182828
    Config      54   0.26856351  0.07212636
    Config      55  -0.33380000  0.11142244
    Config      56  -0.05314479  0.00282437
    Config      71  -0.04744358  0.00225089
 Total coeff printed             0.99199163
  
State   48 32.7607     CI coeff  CI percent
    Config      46   0.33631123  0.11310524
    Config      47   0.04379141  0.00191769
    Config      49   0.74849862  0.56025018
    Config      52  -0.27108617  0.07348771
    Config      54   0.40757273  0.16611553
    Config      55   0.28092485  0.07891877
 Total coeff printed             0.99379513
  
State   49 32.7607     CI coeff  CI percent
    Config      45   0.33631123  0.11310524
    Config      48   0.04379141  0.00191769
    Config      50  -0.74849862  0.56025018
    Config      51  -0.27108617  0.07348771
    Config      53   0.40757273  0.16611553
    Config      56   0.28092485  0.07891877
 Total coeff printed             0.99379513
  
State   50 33.1055     CI coeff  CI percent
    Config      50  -0.59574565  0.35491287
    Config      51   0.49970369  0.24970378
    Config      53  -0.49970369  0.24970378
    Config      56  -0.38012456  0.14449468
 Total coeff printed             0.99881510
  
State   51 33.1055     CI coeff  CI percent
    Config      49   0.59574565  0.35491287
    Config      52   0.49970369  0.24970378
    Config      54  -0.49970369  0.24970378
    Config      55  -0.38012456  0.14449468
 Total coeff printed             0.99881510
  
State   52 33.2677     CI coeff  CI percent
    Config       1  -0.08053289  0.00648555
    Config       6  -0.07025540  0.00493582
    Config       7   0.07025540  0.00493582
    Config      30   0.27502071  0.07563639
    Config      31  -0.05571132  0.00310375
    Config      32  -0.05571132  0.00310375
    Config      43  -0.66485298  0.44202948
    Config      44  -0.66485298  0.44202948
    Config      60   0.04865294  0.00236711
    Config      61   0.04865294  0.00236711
    Config      64  -0.06514199  0.00424348
    Config      65  -0.06514199  0.00424348
    Config      67  -0.05628327  0.00316781
 Total coeff printed             0.99864903
  
State   53 34.0843     CI coeff  CI percent
    Config      19  -0.06777887  0.00459398
    Config      45   0.06583497  0.00433424
    Config      50   0.10142868  0.01028778
    Config      51   0.81708787  0.66763259
    Config      53   0.45683338  0.20869673
    Config      56   0.31462005  0.09898578
    Config      69   0.04874964  0.00237653
 Total coeff printed             0.99690763
  
State   54 34.0843     CI coeff  CI percent
    Config      20  -0.06777887  0.00459398
    Config      46   0.06583497  0.00433424
    Config      49  -0.10142868  0.01028778
    Config      52   0.81708787  0.66763259
    Config      54   0.45683338  0.20869673
    Config      55   0.31462005  0.09898578
    Config      68   0.04874964  0.00237653
 Total coeff printed             0.99690763
  
State   55 36.6590     CI coeff  CI percent
    Config      40  -0.04596681  0.00211295
    Config      45  -0.06898641  0.00475912
    Config      53   0.04077301  0.00166244
    Config      56  -0.06484644  0.00420506
    Config      57   0.24683134  0.06092571
    Config      58   0.95272683  0.90768841
    Config      69  -0.06168392  0.00380491
    Config      70  -0.10028862  0.01005781
 Total coeff printed             0.99521640
  
State   56 36.6590     CI coeff  CI percent
    Config      39  -0.04596681  0.00211295
    Config      46  -0.06898641  0.00475912
    Config      54   0.04077301  0.00166244
    Config      55  -0.06484644  0.00420506
    Config      57   0.95272683  0.90768841
    Config      58  -0.24683134  0.06092571
    Config      68  -0.06168392  0.00380491
    Config      71  -0.10028862  0.01005781
 Total coeff printed             0.99521640
  
State   57 38.7799     CI coeff  CI percent
    Config      37  -0.07307628  0.00534014
    Config      38   0.07307628  0.00534014
    Config      60   0.69893758  0.48851375
    Config      61  -0.69893758  0.48851375
    Config      64   0.05307238  0.00281668
    Config      65  -0.05307238  0.00281668
 Total coeff printed             0.99334113
  
State   58 38.7799     CI coeff  CI percent
    Config      25  -0.05024749  0.00252481
    Config      28  -0.07307628  0.00534014
    Config      29  -0.07307628  0.00534014
    Config      59   0.98844701  0.97702749
    Config      63  -0.07505568  0.00563336
 Total coeff printed             0.99586594
  
State   59 39.0572     CI coeff  CI percent
    Config      62  -0.99496003  0.98994546
    Config      66  -0.05672291  0.00321749
    Config      74   0.05455694  0.00297646
 Total coeff printed             0.99613941
  
State   60 39.6282     CI coeff  CI percent
    Config      30  -0.06088728  0.00370726
    Config      37   0.07482652  0.00559901
    Config      38   0.07482652  0.00559901
    Config      43  -0.05585038  0.00311927
    Config      44  -0.05585038  0.00311927
    Config      60  -0.69461977  0.48249663
    Config      61  -0.69461977  0.48249663
    Config      64  -0.06311409  0.00398339
    Config      65  -0.06311409  0.00398339
 Total coeff printed             0.99410384
  
State   61 39.9772     CI coeff  CI percent
    Config       3  -0.07441970  0.00553829
    Config      39  -0.04394084  0.00193080
    Config      47  -0.42725921  0.18255043
    Config      53  -0.04004663  0.00160373
    Config      54  -0.51092439  0.26104373
    Config      55   0.72858046  0.53082949
    Config      56   0.05710668  0.00326117
    Config      57   0.07248111  0.00525351
    Config      68   0.05994303  0.00359317
 Total coeff printed             0.99560433
  
State   62 39.9772     CI coeff  CI percent
    Config       2   0.07441970  0.00553829
    Config      40  -0.04394084  0.00193080
    Config      48  -0.42725921  0.18255043
    Config      53  -0.51092439  0.26104373
    Config      54   0.04004663  0.00160373
    Config      55  -0.05710668  0.00326117
    Config      56   0.72858046  0.53082949
    Config      58   0.07248111  0.00525351
    Config      69   0.05994303  0.00359317
 Total coeff printed             0.99560433
  
State   63 42.3291     CI coeff  CI percent
    Config      43  -0.04091725  0.00167422
    Config      44   0.04091725  0.00167422
    Config      60   0.05179896  0.00268313
    Config      61  -0.05179896  0.00268313
    Config      64  -0.70272546  0.49382307
    Config      65   0.70272546  0.49382307
 Total coeff printed             0.99636085
  
State   64 42.3291     CI coeff  CI percent
    Config      25   0.04874164  0.00237575
    Config      59   0.07325479  0.00536626
    Config      63   0.99380388  0.98764614
 Total coeff printed             0.99538815
  
State   65 43.1038     CI coeff  CI percent
    Config      43  -0.06863317  0.00471051
    Config      44  -0.06863317  0.00471051
    Config      60  -0.05815471  0.00338197
    Config      61  -0.05815471  0.00338197
    Config      64   0.69921999  0.48890860
    Config      65   0.69921999  0.48890860
 Total coeff printed             0.99400216
  
State   66 43.9940     CI coeff  CI percent
    Config      62  -0.05699684  0.00324864
    Config      66   0.99596619  0.99194865
    Config      74   0.04629174  0.00214293
 Total coeff printed             0.99734021
  
State   67 50.7178     CI coeff  CI percent
    Config       6   0.08280988  0.00685748
    Config       7  -0.08280988  0.00685748
    Config      23   0.05778420  0.00333901
    Config      30  -0.05712498  0.00326326
    Config      67  -0.98519489  0.97060897
    Config      76   0.05587470  0.00312198
    Config      77   0.05587470  0.00312198
 Total coeff printed             0.99717016
  
State   68 50.9369     CI coeff  CI percent
    Config      55  -0.07117731  0.00506621
    Config      57   0.06353645  0.00403688
    Config      68   0.98867362  0.97747553
    Config      69  -0.08890998  0.00790499
 Total coeff printed             0.99448361
  
State   69 50.9369     CI coeff  CI percent
    Config      56   0.07117731  0.00506621
    Config      58  -0.06353645  0.00403688
    Config      68  -0.08890998  0.00790499
    Config      69  -0.98867362  0.97747553
 Total coeff printed             0.99448361
  
State   70 52.6926     CI coeff  CI percent
    Config      40   0.04109356  0.00168868
    Config      48  -0.05427952  0.00294627
    Config      58   0.09914653  0.00983003
    Config      69  -0.04430650  0.00196307
    Config      70   0.96768550  0.93641523
    Config      71  -0.21138489  0.04468357
 Total coeff printed             0.99752685
  
State   71 52.6926     CI coeff  CI percent
    Config      39   0.04109356  0.00168868
    Config      47  -0.05427952  0.00294627
    Config      57   0.09914653  0.00983003
    Config      68  -0.04430650  0.00196307
    Config      70   0.21138489  0.04468357
    Config      71   0.96768550  0.93641523
 Total coeff printed             0.99752685
  
State   72 58.0559     CI coeff  CI percent
    Config      17   0.05433063  0.00295182
    Config      22  -0.07344363  0.00539397
    Config      39   0.05430988  0.00294956
    Config      72  -0.94297906  0.88920950
    Config      73  -0.30760422  0.09462035
 Total coeff printed             0.99512520
  
State   73 58.0559     CI coeff  CI percent
    Config      18  -0.05433063  0.00295182
    Config      21   0.07344363  0.00539397
    Config      40   0.05430988  0.00294956
    Config      72   0.30760422  0.09462035
    Config      73  -0.94297906  0.88920950
 Total coeff printed             0.99512520
  
State   74 60.9081     CI coeff  CI percent
    Config      62   0.05740901  0.00329579
    Config      66  -0.04295126  0.00184481
    Config      74   0.99694968  0.99390866
 Total coeff printed             0.99904927
  
State   75 65.1846     CI coeff  CI percent
    Config      28  -0.05245151  0.00275116
    Config      29  -0.05245151  0.00275116
    Config      75   0.99559663  0.99121265
 Total coeff printed             0.99671497
  
State   76 65.1846     CI coeff  CI percent
    Config      37   0.05245151  0.00275116
    Config      38  -0.05245151  0.00275116
    Config      76  -0.70399313  0.49560632
    Config      77   0.70399313  0.49560632
 Total coeff printed             0.99671497
  
State   77 66.0141     CI coeff  CI percent
    Config      37  -0.05259655  0.00276640
    Config      38  -0.05259655  0.00276640
    Config      67   0.07897263  0.00623668
    Config      76   0.70163586  0.49229288
    Config      77   0.70163586  0.49229288
 Total coeff printed             0.99635523
  

 -------------------------------------------------------------------------------
 INDO MRCI C.A.S.=(3,1)
 Carbon Monoxide
 INDO


     NO PARAMETERS MARKED FOR OPTIMIZATION, SO 1SCF WAS USED  
     SCF FIELD WAS ACHIEVED                                   


                              INDO CALCULATION
                                                       MOPAC v22.0.6 MacOS
                                                       Wed Jul 12 16:25:35 2023


          COSMO AREA              =         57.92 SQUARE ANGSTROMS
          COSMO VOLUME            =         40.40 CUBIC ANGSTROMS

          IONIZATION POTENTIAL    =         14.495342 EV
          HOMO LUMO ENERGIES (EV) =        -14.495  0.096
          NO. OF FILLED LEVELS    =          5
          MOLECULAR WEIGHT        =         28.0104         POINT GROUP:  C*v 

          MOLECULAR DIMENSIONS (Angstroms)

            Atom       Atom       Distance
            O     2    C     1     1.17300
            O     2    C     1     0.00000
            C     1    O     2     0.00000


          SCF CALCULATIONS        =          1

          WALL-CLOCK TIME         =      0.113 SECONDS
          COMPUTATION TIME        =      0.104 SECONDS




   ATOM   CHEMICAL          X               Y               Z
  NUMBER   SYMBOL      (ANGSTROMS)     (ANGSTROMS)     (ANGSTROMS)

     1       C          0.00000000      0.00000000      0.00000000   
     2       O          1.17300000      0.00000000      0.00000000   

                             CARTESIAN COORDINATES

   1    C        0.000000000     0.000000000     0.000000000
   2    O        1.173000000     0.000000000     0.000000000


           Empirical Formula: C O  =     2 atoms



      MOLECULAR POINT GROUP   :   C*v 


                  EIGENVALUES  
 -43.05652 -19.27644 -14.77940 -14.77940 -14.49534   0.09603   0.09603  10.49950


              NET ATOMIC CHARGES AND DIPOLE CONTRIBUTIONS

  ATOM NO.   TYPE          CHARGE      No. of ELECS.   s-Pop       p-Pop       
    1          C           0.228558        3.7714     1.80762     1.96383
    2          O          -0.228558        6.2286     1.79506     4.43350
 DIPOLE           X         Y         Z       TOTAL
 POINT-CHG.    -1.288     0.000     0.000     1.288
 HYBRID         0.828    -0.000    -0.000     0.828
 SUM           -0.460    -0.000    -0.000     0.460


          ATOMIC ORBITAL ELECTRON POPULATIONS

     Atom    s        px        py        pz   
    1  C   1.80762   1.00993   0.47695   0.47695
    2  O   1.79506   1.38739   1.52305   1.52305

 **********************
 *                    *
 * JOB ENDED NORMALLY *
 *                    *
 **********************



 TOTAL JOB TIME:             0.15 SECONDS

 == MOPAC DONE ==
