 *******************************************************************************
 ** Cite this program as: MOPAC2016, Version: 21.298M, James J. P. Stewart,   **
 **                           web-site: HTTP://OpenMOPAC.net.                 **
 *******************************************************************************
 **                                                                           **
 **                                MOPAC2016                                  **
 **                                                                           **
 *******************************************************************************

                              INDO CALCULATION RESULTS

 *******************************************************************************
 *  CALCULATION DONE:                                Fri Oct 29 13:45:02 2021  *
 *  INDO       - The INDO Hamiltonian to be used
 *  CIS        - C.I. USES 1 ELECTRON EXCITATIONS ONLY
 *  QUARTET    - SPIN STATE DEFINED AS A QUARTET
 *  T=         - A TIME OF 172800.0 SECONDS REQUESTED
 *  DUMP=N     - RESTART FILE WRITTEN EVERY 7200.0 SECONDS REQUESTED
 *******************************************************************************
INDO CIS QUARTET
 Nitric oxide
 INDO
   ATOM   CHEMICAL          X               Y               Z
  NUMBER   SYMBOL      (ANGSTROMS)     (ANGSTROMS)     (ANGSTROMS)
 
     1       N          0.00000000      0.00000000      0.00000000   
     2       O          1.17300000      0.00000000      0.00000000   
 


          CARTESIAN COORDINATES 

    NO.       ATOM           X           Y           Z

     1         N          0.0000      0.0000      0.0000
     2         O          1.1730      0.0000      0.0000

           Empirical Formula: N O  =     2 atoms



      MOLECULAR POINT GROUP   :   C*v 
           INDO does not support UHF - defaulting to ROHF


 QUARTET STATE CALCULATION

      THERE ARE    5 DOUBLY FILLED LEVELS


      RHF CALCULATION, NO. OF DOUBLY OCCUPIED LEVELS = 5


                       NO. OF SINGLY OCCUPIED LEVELS =    1
 WARNING: INDO only performs single-point calculations

          ROOT REQUESTED DOES NOT EXIST IN C.I.
  Root requested:    1XXXX
  State requested must be a Quartet.

      Roots available:

     1  DOUBLET  ????


 Reference determinate nber   1 is ALPHA 1 -   6
 SINGLE excitations FROM orbs   1 to   6 INTO orbs   6 to   8
 

 CI excitations=   10:        = 10
 The lowest   10 spin-adapted configurations of multiplicity=  4
     sym   eV   cm**-1 -dets- dipole oscilator X FRAG ....Excitations named from first reference determinate
                       tot  #  Debye  strength
 
   1      3.791      0.  3  1  1.4221 0.000000 1  1 (   5)->(   7   )
   2      4.045   2047.  3  1  1.8177 0.000000 1  1 (   4)->(   7   )
   3      5.946  17380.  3  1  0.8981 0.005513 1  1 (   3)->(   7   )
   4     10.735  56003.  3  1  1.5188 0.000228 1  1 (   2)->(   7   )
   5     16.694 104070.  3  1  0.9972 0.000000 1  1 (   4)->(   8   )
   6     17.251 108558.  3  1  0.6016 0.025570 1  1 (   5)->(   8   )
   7     19.621 127680.  3  1  1.7186 0.000000 1  1 (   3)->(   8   )
   8     24.422 166404.  3  1  0.6983 0.000000 1  1 (   2)->(   8   )
   9     34.445 247242.  3  1  1.0649 0.259974 1  1 (   1)->(   7   )
  10     46.064 340955.  3  1  0.2443 0.000000 1  1 (   1)->(   8   )

 Depression of ground-state after CI=      30468. cm**-1 Energy=  -539.2861159 eV
 Dipole moment=  1.421660  0.000000 -0.000000 tot=  1.421660 Debyes


  CI trans.  energy frequency wavelength oscillator--------- polarization---------  dipole  ------ components-----
 st.  symm.    eV      cm - 1       nm      strength       x          y         z       moment     x       y       z 

   2      0.2673535     2156.   4637.45  0.000000                                   1.817727   1.818   0.000   0.000
   3      2.0357270    16419.    609.04  0.005176  -0.000000  -0.000019  -1.000000  2.026448  -2.026  -0.000   0.000
   4      7.0734999    57052.    175.28  0.001044   0.000000  -0.000019  -1.000000  2.589924   2.590   0.000  -0.000
   5     12.9166059   104180.     95.99  0.000035  -0.000000   1.000000  -0.000019  0.997216   0.997   0.000  -0.000
   6     13.4399351   108401.     92.25  0.019410  -0.000000   0.000019   1.000000  0.602842   0.603   0.000   0.000
   7     15.8201374   127598.     78.37  0.000001  -1.000000   0.000000   0.000000  2.095384  -2.095   0.000  -0.000
   8     20.6449872   166513.     60.06  0.000073   1.000000   0.000000   0.000000  0.995309   0.995   0.000  -0.000
   9     30.7170496   247750.     40.36  0.262435  -0.000000  -0.000019  -1.000000  1.120834   1.121  -0.000   0.000
  10     42.3238387   341366.     29.29  0.000074  -1.000000   0.000000   0.000000  0.324546   0.325  -0.000   0.000
 
 Polarizability (au  ) xx=    0.00 xy=   -0.00 yy=    0.00 xz=    0.00 yz=    0.00 zz=    3.68
 Polarizability (A**3) xx=    0.00 xy=   -0.00 yy=    0.00 xz=    0.00 yz=    0.00 zz=    0.54
 
 
 Major CI contributions to CI states
 
State    1  0.0000     CI coeff  CI percent
    Config       1   0.99983901  0.99967805
 Total coeff printed             0.99967805
  
State    2  0.2674     CI coeff  CI percent
    Config       2   1.00000000  1.00000000
 Total coeff printed             1.00000000
  
State    3  2.0357     CI coeff  CI percent
    Config       3  -0.98720470  0.97457313
    Config       4   0.15850021  0.02512232
 Total coeff printed             0.99969544
  
State    4  7.0735     CI coeff  CI percent
    Config       3  -0.15881515  0.02522225
    Config       4  -0.98713588  0.97443725
 Total coeff printed             0.99965950
  
State    5 12.9166     CI coeff  CI percent
    Config       5  -1.00000000  1.00000000
 Total coeff printed             1.00000000
  
State    6 13.4399     CI coeff  CI percent
    Config       6  -0.99903003  0.99806100
    Config       9   0.04374936  0.00191401
 Total coeff printed             0.99997501
  
State    7 15.8201     CI coeff  CI percent
    Config       7  -0.99852480  0.99705178
    Config       8  -0.05057524  0.00255785
 Total coeff printed             0.99960963
  
State    8 20.6450     CI coeff  CI percent
    Config       7  -0.05007856  0.00250786
    Config       8   0.99843430  0.99687106
 Total coeff printed             0.99937892
  
State    9 30.7170     CI coeff  CI percent
    Config       6   0.04386017  0.00192371
    Config       9   0.99872730  0.99745622
 Total coeff printed             0.99937994
  
State   10 42.3238     CI coeff  CI percent
    Config      10   0.99933429  0.99866903
 Total coeff printed             0.99866903
  

 ******************************************************************************
 *                                                                            *
 *     Error and normal termination messages reported in this calculation     *
 *                                                                            *
 * ROOT REQUESTED DOES NOT EXIST IN C.I.                                      *
 * JOB ENDED NORMALLY                                                         *
 *                                                                            *
 ******************************************************************************



 TOTAL JOB TIME:             0.03 SECONDS

 == MOPAC DONE ==
