 *******************************************************************************
 **                                                                           **
 **                              MOPAC v22.0.6                                **
 **                                                                           **
 *******************************************************************************
 **          Digital Object Identifier (DOI): 10.5281/zenodo.6511958          **
 **    Visit the DOI location for information on how to cite this program.    **
 *******************************************************************************

                              INDO CALCULATION RESULTS

 *******************************************************************************
 *  CALCULATION DONE:                                Wed Jul 12 16:25:36 2023  *
 *  INDO       - The INDO Hamiltonian to be used
 *  MRCI       -  Use multi-reference CI (specify ref dets using C.A.S.)
 * C.A.S.=(N,M)-  1 DOUBLY FILLED LEVELS USED IN A
 *             CAS REF DET GENERATION INVOLVING  3 M.O.'S
 *  T=         - A TIME OF 172800.0 SECONDS REQUESTED
 *  DUMP=N     - RESTART FILE WRITTEN EVERY 7200.0 SECONDS REQUESTED
 *******************************************************************************
INDO MRCI C.A.S.=(3,1)
 Nitric oxide
 INDO
   ATOM   CHEMICAL          X               Y               Z
  NUMBER   SYMBOL      (ANGSTROMS)     (ANGSTROMS)     (ANGSTROMS)

     1       N          0.00000000      0.00000000      0.00000000   
     2       O          1.17300000      0.00000000      0.00000000   



          CARTESIAN COORDINATES 

    NO.       ATOM           X           Y           Z

     1         N          0.0000      0.0000      0.0000
     2         O          1.1730      0.0000      0.0000

           Empirical Formula: N O  =     2 atoms



      MOLECULAR POINT GROUP   :   C*v 
           INDO does not support UHF - defaulting to ROHF

      THERE ARE    5 DOUBLY FILLED LEVELS


      RHF CALCULATION, NO. OF DOUBLY OCCUPIED LEVELS = 5


                       NO. OF SINGLY OCCUPIED LEVELS =    1
 WARNING: INDO only performs single-point calculations

 Summary of symmetry occupancy in each shell:

 SHELL     
    1    5
    2    1
    v    2
 TOTAL   8


                     MOLECULAR ORBITALS 






    ROOT NO.    1           2           3           4           5           6

           -46.30852   -22.70656   -17.77413   -16.30737   -15.67555   -11.08334
  
  
  S  N   1   0.52481     0.64123    -0.48138     0.00000     0.00000     0.00000
 PX  N   1   0.36449    -0.12789     0.62805    -0.00000    -0.00000    -0.00000
 PY  N   1   0.00000     0.00000     0.00000     0.52303    -0.00000     0.85231
 PZ  N   1   0.00000     0.00000     0.00000     0.00000     0.58633     0.00001
  
  S  O   2   0.70161    -0.61273    -0.22223     0.00000    -0.00000     0.00000
 PX  O   2  -0.31538    -0.44387    -0.56960     0.00000     0.00000     0.00000
 PY  O   2  -0.00000     0.00000     0.00000     0.85231    -0.00001    -0.52303
 PZ  O   2  -0.00000     0.00000     0.00000     0.00001     0.81007    -0.00000




    ROOT NO.    7           8

            -1.67356    11.42925
  
  
  S  N   1  -0.00000     0.28577
 PX  N   1   0.00000     0.67553
 PY  N   1  -0.00001    -0.00000
 PZ  N   1   0.81007    -0.00000
  
  S  O   2  -0.00000    -0.28795
 PX  O   2  -0.00000     0.61569
 PY  O   2   0.00000    -0.00000
 PZ  O   2  -0.58633    -0.00000


 Reference determinate nber   1 is ALPHA 1 -   6
 CAS excitations amongst orbitals:   5   6   7
 SINGLE excitations FROM orbs   1 to   6 INTO orbs   6 to   8


 CI excitations=  121:        =121
 The lowest  121 spin-adapted configurations of multiplicity=  2
     sym   eV   cm**-1 -dets- dipole oscilator X FRAG ....Excitations named from first reference determinate
                       tot  #  Debye  strength

   1      0.000      0.  1  1  0.3381 0.000000 0  1 (            )->(               )
   2      0.101    815.  1  1  0.7337 0.000000 1  1 (   6        )->(   7           )
   3      4.974  40119.  3  1  1.4221 0.000078 1  1 (   5        )->(   7           )
   4      5.233  42210.  3  1  1.8177 0.000000 1  1 (   4        )->(   7           )
   5      6.160  49685.  1  1  1.4221 0.000000 2  1 (   4   6    )->(   7   7       )
   6      6.425  51822.  1  1  1.8177 0.000000 1  1 (   5        )->(   6           )
   7      7.324  59071.  1  1  1.0264 0.000000 2  1 (   5   6    )->(   7   7       )
   8      7.672  61881.  3  1  0.8981 0.004582 1  1 (   3        )->(   7           )
   9      7.734  62379.  1  1  2.2134 0.185017 1  1 (   4        )->(   6           )
  10      8.153  65757.  1  1  0.5025 0.010561 1  1 (   3        )->(   6           )
  11      8.156  65786.  1  1  1.2938 0.000000 2  1 (   3   6    )->(   7   7       )
  12      8.446  68119.  3  2  0.8981 0.012512 1  1 (   3        )->(   7           )
  13      9.857  79501.  3  2  1.8177 0.000000 1  1 (   4        )->(   7           )
  14     10.333  83343.  3  2  1.4221 0.561081 1  1 (   5        )->(   7           )
  15     12.994 104800.  3  1  1.5188 0.056968 1  1 (   2        )->(   7           )
  16     13.358 107740.  1  1  1.1232 0.000000 2  1 (   2   6    )->(   7   7       )
  17     13.471 108654.  1  1  1.5542 0.025112 1  1 (   6        )->(   8           )
  18     13.592 109624.  1  1  1.9145 0.123039 1  1 (   2        )->(   6           )
  19     13.832 111562.  3  1  3.5779 0.000000 2  1 (   4   5    )->(   7   7       )
  20     14.092 113657.  3  1  3.9735 0.000000 2  1 (   4   5    )->(   6   7       )
  21     14.124 113914.  3  1  1.2577 0.000000 2  1 (   3   5    )->(   6   7       )
  22     14.828 119597.  3  2  1.5188 0.207497 1  1 (   2        )->(   7           )
  23     15.030 121226.  3  1  0.8620 0.000000 2  1 (   3   5    )->(   7   7       )
  24     15.049 121382.  1  1  3.5779 0.000000 2  1 (   5   5    )->(   6   7       )
  25     15.847 127816.  1  1  3.1822 0.000000 2  1 (   5   5    )->(   7   7       )
  26     15.918 128385.  3  2  0.8620 0.000000 2  1 (   3   5    )->(   7   7       )
  27     18.341 147927.  3  1  0.2059 0.000000 2  1 (   5   6    )->(   7   8       )
  28     18.441 148733.  3  2  3.5779 0.000000 2  1 (   4   5    )->(   7   7       )
  29     18.549 149605.  3  1  0.6016 0.000000 2  1 (   4   6    )->(   7   8       )
  30     18.551 149626.  3  1  0.9972 0.001379 1  1 (   4        )->(   8           )
  31     18.552 149635.  3  1  0.6016 0.000119 1  1 (   5        )->(   8           )
  32     18.817 151771.  3  2  1.2577 0.000000 2  1 (   3   5    )->(   6   7       )
  33     19.098 154040.  3  2  0.6016 0.000000 2  1 (   4   6    )->(   7   8       )
  34     19.104 154081.  3  2  0.6016 0.000415 1  1 (   5        )->(   8           )
  35     19.428 156696.  3  2  3.9735 0.000000 2  1 (   4   5    )->(   6   7       )
  36     20.906 168622.  3  1  3.2790 0.000000 2  1 (   2   5    )->(   7   7       )
  37     21.512 173506.  3  1  3.6746 0.000000 2  1 (   2   5    )->(   6   7       )
  38     21.777 175645.  3  1  1.7186 0.015677 1  1 (   3        )->(   8           )
  39     21.906 176684.  3  1  2.1143 0.000000 2  1 (   3   6    )->(   7   8       )
  40     22.727 183305.  3  2  0.9972 0.000574 1  1 (   4        )->(   8           )
  41     23.051 185923.  3  2  1.7186 0.578944 1  1 (   3        )->(   8           )
  42     23.092 186252.  3  2  3.2790 0.000000 2  1 (   2   5    )->(   7   7       )
  43     23.192 187057.  3  2  2.1143 0.000000 2  1 (   3   6    )->(   7   8       )
  44     23.248 187509.  3  2  0.2059 0.000000 2  1 (   5   6    )->(   7   8       )
  45     23.904 192798. 10  1  2.7574 0.000000 2  1 (   4   5    )->(   7   8       )
  46     24.344 196349. 10  2  2.7574 0.000000 2  1 (   4   5    )->(   7   8       )
  47     24.656 198868.  1  1  3.0178 0.000000 3  1 (   3   5   5)->(   6   7   7   )
  48     24.782 199884.  3  2  3.6746 0.000000 2  1 (   2   5    )->(   6   7       )
  49     26.301 212134.  1  1  5.7337 0.000000 3  1 (   4   5   5)->(   6   7   7   )
  50     26.313 212229.  1  1  2.7574 0.000000 2  1 (   5   5    )->(   6   8       )
  51     26.406 212978. 10  1  0.0415 0.000000 2  1 (   3   5    )->(   7   8       )
  52     26.650 214945.  3  1  0.6983 0.004540 1  1 (   2        )->(   8           )
  53     26.675 215152.  3  1  0.3027 0.000000 2  1 (   2   6    )->(   7   8       )
  54     26.759 215830.  3  1  2.3617 0.000000 3  1 (   4   5   6)->(   7   7   8   )
  55     26.780 215994.  3  1  2.3617 0.000000 3  1 (   5   5   6)->(   6   7   8   )
  56     27.079 218403.  3  2  2.3617 0.000000 3  1 (   4   5   6)->(   7   7   8   )
  57     27.107 218631.  3  2  2.3617 0.000000 3  1 (   5   5   6)->(   6   7   8   )
  58     27.336 220482.  3  1  3.1530 0.000000 2  1 (   4   5    )->(   6   8       )
  59     27.355 220630. 10  2  0.0415 0.000000 2  1 (   3   5    )->(   7   8       )
  60     27.655 223056.  3  2  3.1530 0.000000 2  1 (   4   5    )->(   6   8       )
  61     27.772 223996.  3  1  0.4372 0.000000 2  1 (   3   5    )->(   6   8       )
  62     27.792 224161. 10  3  0.0415 0.000000 2  1 (   3   5    )->(   7   8       )
  63     27.940 225353.  3  2  0.6983 0.003863 1  1 (   2        )->(   8           )
  64     28.013 225937.  3  2  0.3027 0.000000 2  1 (   2   6    )->(   7   8       )
  65     28.209 227518.  1  1  1.9661 0.000000 3  1 (   5   5   6)->(   7   7   8   )
  66     28.772 232066.  3  1  0.3541 0.000000 3  1 (   3   5   6)->(   7   7   8   )
  67     28.939 233408. 10  3  2.7574 0.000000 2  1 (   4   5    )->(   7   8       )
  68     29.164 235222.  3  2  0.4372 0.000000 2  1 (   3   5    )->(   6   8       )
  69     29.705 239589. 10  4  2.7574 0.000000 2  1 (   4   5    )->(   7   8       )
  70     30.164 243292.  3  2  0.3541 0.000000 3  1 (   3   5   6)->(   7   7   8   )
  71     31.150 251242.  1  1  5.4348 0.000000 3  1 (   2   5   5)->(   6   7   7   )
  72     31.886 257181. 10  4  0.0415 0.000000 2  1 (   3   5    )->(   7   8       )
  73     31.887 257188. 10  1  2.4585 0.000000 2  1 (   2   5    )->(   7   8       )
  74     33.161 267461. 10  5  0.0415 0.000000 2  1 (   3   5    )->(   7   8       )
  75     33.378 269215. 10  2  2.4585 0.000000 2  1 (   2   5    )->(   7   8       )
  76     33.398 269372.  3  1  2.8541 0.000000 2  1 (   2   5    )->(   6   8       )
  77     33.868 273161. 10  5  2.7574 0.000000 2  1 (   4   5    )->(   7   8       )
  78     34.161 275530.  3  1  2.0628 0.000000 3  1 (   2   5   6)->(   7   7   8   )
  79     34.560 278747. 10  3  2.4585 0.000000 2  1 (   2   5    )->(   7   8       )
  80     34.949 281882.  3  2  2.8541 0.000000 2  1 (   2   5    )->(   6   8       )
  81     35.712 288040.  3  2  2.0628 0.000000 3  1 (   2   5   6)->(   7   7   8   )
  82     36.009 290430.  3  1  4.5175 0.000000 3  1 (   4   5   5)->(   7   7   8   )
  83     36.299 292774.  3  1  2.1973 0.000000 3  1 (   3   5   5)->(   6   7   8   )
  84     36.583 295060.  3  1  4.9132 0.000000 3  1 (   4   5   5)->(   6   7   8   )
  85     36.601 295207.  3  1  1.0649 0.001114 1  1 (   1        )->(   7           )
  86     36.969 298173.  1  1  0.6692 0.000000 2  1 (   1   6    )->(   7   7       )
  87     37.133 299495.  3  2  4.9132 0.000000 3  1 (   4   5   5)->(   6   7   8   )
  88     37.171 299805.  3  1  1.8017 0.000000 3  1 (   3   5   5)->(   7   7   8   )
  89     37.200 300043.  1  1  1.4605 0.008802 1  1 (   1        )->(   6           )
  90     37.287 300738. 10  4  2.4585 0.000000 2  1 (   2   5    )->(   7   8       )
  91     37.585 303147.  3  2  2.1973 0.000000 3  1 (   3   5   5)->(   6   7   8   )
  92     38.239 308417.  3  2  1.0649 0.004235 1  1 (   1        )->(   7           )
  93     38.445 310083.  3  2  1.8017 0.000000 3  1 (   3   5   5)->(   7   7   8   )
  94     38.580 311167. 10  5  2.4585 0.000000 2  1 (   2   5    )->(   7   8       )
  95     40.184 324108.  3  2  4.5175 0.000000 3  1 (   4   5   5)->(   7   7   8   )
  96     42.360 341660.  3  1  4.6143 0.000000 3  1 (   2   5   5)->(   6   7   8   )
  97     43.098 347611.  3  1  4.2186 0.000000 3  1 (   2   5   5)->(   7   7   8   )
  98     43.698 352446.  3  2  4.6143 0.000000 3  1 (   2   5   5)->(   6   7   8   )
  99     44.389 358019.  3  2  4.2186 0.000000 3  1 (   2   5   5)->(   7   7   8   )
 100     44.462 358609.  3  1  2.8250 0.000000 2  1 (   1   5    )->(   7   7       )
 101     45.158 364222.  3  1  3.2207 0.000000 2  1 (   1   5    )->(   6   7       )
 102     46.764 377181.  3  2  2.8250 0.000000 2  1 (   1   5    )->(   7   7       )
 103     48.411 390464.  3  2  3.2207 0.000000 2  1 (   1   5    )->(   6   7       )
 104     48.763 393305.  3  1  0.2443 0.000975 1  1 (   1        )->(   8           )
 105     48.864 394113.  3  1  0.1513 0.000000 2  1 (   1   6    )->(   7   8       )
 106     54.257 437610.  3  2  0.2443 0.112878 1  1 (   1        )->(   8           )
 107     54.277 437776. 10  1  2.0045 0.000000 2  1 (   1   5    )->(   7   8       )
 108     54.305 438000.  3  2  0.1513 0.000000 2  1 (   1   6    )->(   7   8       )
 109     54.751 441600.  1  1  4.9808 0.000000 3  1 (   1   5   5)->(   6   7   7   )
 110     55.888 450767.  3  1  2.4001 0.000000 2  1 (   1   5    )->(   6   8       )
 111     56.077 452297. 10  2  2.0045 0.000000 2  1 (   1   5    )->(   7   8       )
 112     56.653 456939.  3  1  1.6088 0.000000 3  1 (   1   5   6)->(   7   7   8   )
 113     59.284 478160. 10  3  2.0045 0.000000 2  1 (   1   5    )->(   7   8       )
 114     59.736 481806. 10  4  2.0045 0.000000 2  1 (   1   5    )->(   7   8       )
 115     61.146 493174.  3  2  2.4001 0.000000 2  1 (   1   5    )->(   6   8       )
 116     61.911 499345.  3  2  1.6088 0.000000 3  1 (   1   5   6)->(   7   7   8   )
 117     64.540 520548.  3  1  4.1603 0.000000 3  1 (   1   5   5)->(   6   7   8   )
 118     64.897 523429. 10  5  2.0045 0.000000 2  1 (   1   5    )->(   7   8       )
 119     65.205 525911.  3  1  3.7646 0.000000 3  1 (   1   5   5)->(   7   7   8   )
 120     69.981 564435.  3  2  4.1603 0.000000 3  1 (   1   5   5)->(   6   7   8   )
 121     70.698 570216.  3  2  3.7646 0.000000 3  1 (   1   5   5)->(   7   7   8   )

 Depression of ground-state after CI=      -9996. cm**-1 Energy=  -544.3029867 eV
 Dipole moment=  0.057753 -0.000000  0.000000 tot=  0.057753 Debyes


  CI trans.  energy frequency wavelength oscillator--------- polarization---------  dipole  ------ components-----
 st.  symm.    eV      cm - 1       nm      strength       x          y         z       moment     x       y       z 

   2      0.5517676     4450.   2247.03  0.000000                                   0.116741   0.117  -0.000   0.000
   3      5.6223595    45348.    220.52  0.000818   1.000000   0.000000  -0.000000  0.764047   0.764  -0.000   0.000
   4      5.7342534    46250.    216.22  0.000000                                   0.902599   0.903   0.000   0.000
   5      6.3799762    51458.    194.33  0.000030   1.000000   0.000000   0.000000  0.852925   0.853  -0.000  -0.000
   6      6.3808339    51465.    194.31  0.000000                                   0.856931   0.857   0.000  -0.000
   7      7.5053870    60535.    165.19  0.000000                                   0.876508   0.877   0.000   0.000
   8      7.7091389    62179.    160.83  0.001341  -1.000000  -0.000000   0.000000  1.320182   1.320   0.000   0.000
   9      8.2693097    66697.    149.93  0.015120  -0.000000  -1.000000  -0.000072  1.061819  -1.062   0.000   0.000
  10      8.5751798    69164.    144.58  0.011194  -0.000000   0.000107  -1.000000  0.914143  -0.914   0.000  -0.000
  11      9.1820018    74058.    135.03  0.000601   0.000000   0.000118   1.000000  0.326977  -0.327   0.000  -0.000
  12      9.4853926    76505.    130.71  0.002830  -0.000000   1.000000  -0.000008  1.374656  -1.375   0.000   0.000
  13     10.6951160    86262.    115.93  0.304421  -1.000000   0.000000   0.000000  0.369382  -0.369  -0.000   0.000
  14     11.3880406    91851.    108.87  0.000000                                   0.997835  -0.998   0.000  -0.000
  15     12.6705725   102195.     97.85  0.017701   0.000000   1.000000   0.000166  1.120889   1.121   0.000   0.000
  16     12.8308761   103488.     96.63  0.126833  -0.000000   0.000010  -1.000000  1.459390   1.459  -0.000  -0.000
  17     13.2339130   106739.     93.69  0.070662   0.000000   1.000000  -0.000030  0.518492   0.518   0.000   0.000
  18     14.4534037   116575.     85.78  0.041247   0.000000  -0.000066  -1.000000  0.768663   0.769   0.000  -0.000
  19     14.6960679   118532.     84.37  0.004736   0.000000   1.000000  -0.000113  1.071445   1.071   0.000  -0.000
  20     14.9072601   120235.     83.17  0.004685  -1.000000   0.000000   0.000000  4.227040   4.227   0.000  -0.000
  21     15.5121307   125114.     79.93  0.000000                                   4.519108   4.519   0.000  -0.000
  22     15.5938662   125773.     79.51  0.028093  -0.000000  -1.000000   0.000025  0.260632   0.261   0.000   0.000
  23     15.6859343   126516.     79.04  0.000000                                   3.764871   3.765   0.000  -0.000
  24     15.7171918   126768.     78.88  0.002236  -1.000000   0.000000   0.000000  4.115338   4.115   0.000   0.000
  25     16.6900641   134615.     74.29  0.014428   0.000000  -0.000015   1.000000  1.121318  -1.121   0.000   0.000
  26     17.9421593   144714.     69.10  0.003604  -1.000000   0.000000   0.000000  0.748207   0.748   0.000  -0.000
  27     18.4336819   148678.     67.26  0.074773  -0.000000  -0.000011  -1.000000  1.639927  -1.640   0.000   0.000
  28     18.8103092   151716.     65.91  0.011369  -0.000000  -1.000000  -0.000002  0.895435  -0.895  -0.000  -0.000
  29     18.9603206   152926.     65.39  0.000023  -0.000000   1.000000   0.000126  0.329306   0.329   0.000  -0.000
  30     19.1413407   154386.     64.77  0.000609  -0.000000   0.000007   1.000000  0.117835  -0.118  -0.000  -0.000
  31     19.6796664   158728.     63.00  0.000000                                   4.766477   4.766   0.000   0.000
  32     19.6798896   158729.     63.00  0.000200   0.000000  -0.000180   1.000000  0.131327  -0.131  -0.000  -0.000
  33     19.7069534   158948.     62.91  0.000043  -0.000000   0.999969  -0.007813  0.123205  -0.123  -0.000  -0.000
  34     19.7285411   159122.     62.84  0.001772   0.000000   0.000246   1.000000  0.009722   0.010  -0.000   0.000
  35     19.7567915   159350.     62.76  0.000519  -0.000000  -1.000000   0.000126  0.020258   0.020  -0.000  -0.000
  36     20.3529821   164158.     60.92  0.000620  -0.000000   0.000016   1.000000  0.105740  -0.106   0.000  -0.000
  37     21.8625889   176334.     56.71  0.021782   1.000000   0.000000  -0.000000  1.170939  -1.171   0.000   0.000
  38     22.5149729   181596.     55.07  0.000000                                   1.144038  -1.144   0.000  -0.000
  39     22.5947170   182239.     54.87  0.000114   0.000000   1.000000  -0.000212  3.110409   3.110   0.000   0.000
  40     22.7902118   183816.     54.40  0.003554  -0.000000  -0.000001  -1.000000  5.304637   5.305   0.000  -0.000
  41     23.2789231   187758.     53.26  0.623038  -1.000000  -0.000000   0.000000  1.613706  -1.614   0.000   0.000
  42     23.5226140   189723.     52.71  0.002789   0.000000   1.000000  -0.000016  3.244848   3.245   0.000  -0.000
  43     24.6491725   198809.     50.30  0.000000                                   2.121350  -2.121  -0.000  -0.000
  44     24.8195276   200183.     49.95  0.008348   0.000000   0.000010   1.000000  5.378100   5.378   0.000   0.000
  45     24.8763391   200642.     49.84  0.000013   0.000000  -1.000000   0.000068  2.541312   2.541  -0.000  -0.000
  46     25.5835112   206345.     48.46  0.000000   0.000000  -1.000000   0.000560  2.757341   2.757   0.000  -0.000
  47     26.2434718   211668.     47.24  0.000832  -0.000000  -0.000038   1.000000  2.763412   2.763   0.000  -0.000
  48     26.2436361   211670.     47.24  0.000010  -0.000000  -0.999991  -0.004132  1.958727   1.959   0.000  -0.000
  49     26.4107421   213018.     46.94  0.078098  -1.000000   0.000000  -0.000000  0.972535   0.973   0.000   0.000
  50     26.5584406   214209.     46.68  0.000031   0.000000   0.000238  -1.000000  2.794037   2.794  -0.000   0.000
  51     26.6349388   214826.     46.55  0.000000                                   0.056879  -0.057   0.000   0.000
  52     26.7617871   215849.     46.33  0.069564   1.000000  -0.000000   0.000000  0.444097   0.444   0.000  -0.000
  53     26.8424025   216499.     46.19  0.000158  -0.000000  -1.000000  -0.000036  0.694878   0.695  -0.000  -0.000
  54     27.0038014   217801.     45.91  0.000414   0.000000  -1.000000  -0.000030  2.777983   2.778  -0.000   0.000
  55     27.7475035   223799.     44.68  0.000000                                   0.851360   0.851  -0.000  -0.000
  56     28.2263959   227662.     43.92  0.001403  -1.000000   0.000000   0.000000  0.689385  -0.689   0.000   0.000
  57     28.2692397   228007.     43.86  0.000521  -0.000000   0.000001  -1.000000  2.478570   2.479   0.000  -0.000
  58     28.3201691   228418.     43.78  0.000000                                   1.535964  -1.536   0.000   0.000
  59     28.4738673   229658.     43.54  0.000133   0.000000  -1.000000  -0.000013  2.624149   2.624  -0.000  -0.000
  60     28.4975955   229849.     43.51  0.001255  -0.000000  -1.000000  -0.000239  0.211316   0.211   0.000   0.000
  61     28.5267771   230085.     43.46  0.000772   0.000000  -0.000366   1.000000  2.753036   2.753   0.000  -0.000
  62     28.7060035   231530.     43.19  0.000749  -0.000000   0.000029  -1.000000  1.963921   1.964  -0.000  -0.000
  63     28.8026265   232309.     43.05  0.001014  -1.000000   0.000000  -0.000000  0.493419  -0.493  -0.000   0.000
  64     29.0957902   234674.     42.61  0.000009  -1.000000   0.000000  -0.000000  0.884233  -0.884   0.000   0.000
  65     29.1824754   235373.     42.49  0.002880  -0.000000  -0.000003   1.000000  0.936813   0.937   0.000  -0.000
  66     29.5908635   238667.     41.90  0.000000                                   1.554874  -1.555  -0.000  -0.000
  67     30.1779037   243402.     41.08  0.000053  -0.000000  -1.000000  -0.000040  2.933043   2.933  -0.000   0.000
  68     31.2723602   252229.     39.65  0.000000                                   2.261160  -2.261   0.000   0.000
  69     31.9113140   257383.     38.85  0.004131  -1.000000  -0.000000   0.000000  8.052017   8.052   0.000   0.000
  70     32.3767820   261137.     38.29  0.000978  -1.000000   0.000000   0.000000  0.468412  -0.468  -0.000   0.000
  71     32.7733156   264335.     37.83  0.000000                                   3.198876  -3.199  -0.000  -0.000
  72     33.4116171   269484.     37.11  0.000000                                   3.026391   3.026   0.000  -0.000
  73     33.4205910   269556.     37.10  0.005382   1.000000   0.000000   0.000000  3.440630   3.441   0.000  -0.000
  74     34.0695685   274790.     36.39  0.001069  -1.000000   0.000000  -0.000000  0.512499   0.512   0.000   0.000
  75     35.0312252   282547.     35.39  0.000085   1.000000   0.000000  -0.000000  2.569482   2.569  -0.000  -0.000
  76     35.0829636   282964.     35.34  0.000252   0.000000  -1.000000   0.000034  3.763827  -3.764   0.000   0.000
  77     35.4971255   286304.     34.93  0.000000                                   2.782018   2.782   0.000  -0.000
  78     35.6041849   287168.     34.82  0.007787  -1.000000   0.000000   0.000000  1.424129   1.424   0.000   0.000
  79     35.8943873   289508.     34.54  0.000000                                   3.936769   3.937   0.000  -0.000
  80     36.5540787   294829.     33.92  0.014194  -1.000000  -0.000000   0.000000  2.092999   2.093   0.000   0.000
  81     37.0961045   299201.     33.42  0.000000                                   0.180753   0.181   0.000   0.000
  82     37.3104789   300930.     33.23  0.002300   0.000000  -1.000000  -0.000017  9.027981   9.028   0.000  -0.000
  83     37.4024031   301671.     33.15  0.000000                                   4.270491   4.270   0.000   0.000
  84     37.6005428   303270.     32.97  0.004583  -1.000000  -0.000000  -0.000000  0.677197   0.677   0.000   0.000
  85     37.8345442   305157.     32.77  0.000708   0.000000   1.000000   0.000693  2.292880   2.293   0.000  -0.000
  86     37.8673390   305421.     32.74  0.000639  -0.000000  -0.000823   1.000000  0.513179   0.513  -0.000  -0.000
  87     38.3129229   309015.     32.36  0.000000                                   1.325617   1.326   0.000   0.000
  88     38.6559180   311782.     32.07  0.002736  -0.000000  -1.000000   0.000011  1.150808   1.151  -0.000  -0.000
  89     39.2757197   316781.     31.57  0.000541  -1.000000   0.000000  -0.000000  1.162431  -1.162  -0.000  -0.000
  90     39.4390332   318098.     31.44  0.000295   0.000000  -0.000047  -1.000000  3.019807   3.020  -0.000   0.000
  91     39.4831594   318454.     31.40  0.000074   0.000000  -0.000063  -1.000000  4.404969   4.405  -0.000   0.000
  92     40.2697421   324798.     30.79  0.000093   0.000000  -1.000000   0.000003  7.665315   7.665   0.000  -0.000
  93     40.5006305   326660.     30.61  0.000042  -0.000000   0.000009  -1.000000  7.265691   7.266   0.000  -0.000
  94     40.7119054   328364.     30.45  0.002025   1.000000  -0.000000   0.000000  0.554431  -0.554   0.000   0.000
  95     45.5657413   367513.     27.21  0.000000                                   7.362946   7.363  -0.000  -0.000
  96     45.9505300   370617.     26.98  0.000247  -0.000000   0.000036  -1.000000  3.463718   3.464  -0.000  -0.000
  97     46.4010965   374251.     26.72  0.000001   0.000000  -1.000000  -0.000131  9.335198   9.335   0.000   0.000
  98     46.4630076   374750.     26.68  0.001299   0.000000   1.000000   0.000002  2.432189   2.432   0.000  -0.000
  99     46.8601288   377953.     26.46  0.000000                                   8.861006   8.861   0.000   0.000
 100     47.9210937   386511.     25.87  0.001783   0.000000  -1.000000  -0.000012  2.068144   2.068   0.000   0.000
 101     48.0908258   387880.     25.78  0.000091   1.000000  -0.000000  -0.000000  8.765191   8.765   0.000   0.000
 102     49.0259281   395422.     25.29  0.002701   0.000000  -0.000006  -1.000000  4.368275   4.368  -0.000  -0.000
 103     49.7885658   401573.     24.90  0.002168   1.000000  -0.000000   0.000000  0.750571   0.751  -0.000   0.000
 104     50.0750438   403883.     24.76  0.002962   1.000000   0.000000   0.000000 10.486977  10.487   0.000  -0.000
 105     50.4649803   407029.     24.57  0.000000                                   0.856787  -0.857   0.000   0.000
 106     55.1080546   444478.     22.50  0.172460  -1.000000   0.000000  -0.000000  0.738621   0.739  -0.000  -0.000
 107     56.0291926   451907.     22.13  0.000000                                   0.437996  -0.438  -0.000   0.000
 108     56.1705709   453047.     22.07  0.041855   1.000000  -0.000000  -0.000000  1.657434   1.657  -0.000  -0.000
 109     56.8693821   458684.     21.80  0.000000                                   1.450055   1.450  -0.000  -0.000
 110     58.0407941   468132.     21.36  0.017166  -1.000000   0.000000  -0.000000  1.901227   1.901  -0.000   0.000
 111     58.6773506   473266.     21.13  0.000000                                   2.308498   2.308  -0.000   0.000
 112     59.3703361   478855.     20.88  0.000271   1.000000   0.000000   0.000000  0.726123  -0.726  -0.000   0.000
 113     59.6046634   480745.     20.80  0.000145   0.000000   1.000000   0.000014  8.579201   8.579  -0.000   0.000
 114     61.3490327   494815.     20.21  0.000000  -1.000000  -0.000000  -0.000000  2.102863   2.103  -0.000  -0.000
 115     61.9342026   499534.     20.02  0.000000                                   1.313937   1.314  -0.000   0.000
 116     63.9955292   516160.     19.37  0.000000                                   2.169057   2.169  -0.000  -0.000
 117     65.2275559   526097.     19.01  0.000409   1.000000  -0.000000   0.000000  1.205517  -1.206  -0.000   0.000
 118     66.5770305   536981.     18.62  0.000000                                   5.420165   5.420  -0.000  -0.000
 119     69.0813036   557180.     17.95  0.000010  -1.000000   0.000000   0.000000  7.109878   7.110  -0.000  -0.000
 120     72.5006393   584759.     17.10  0.000000                                   5.618893   5.619  -0.000  -0.000
 121     75.2238771   606723.     16.48  0.000873   1.000000  -0.000000   0.000000  7.099019   7.099  -0.000  -0.000

 Polarizability (au  ) xx=    9.48 xy=    0.00 yy=    2.11 xz=    0.00 yz=    0.00 zz=    3.19
 Polarizability (A**3) xx=    1.41 xy=    0.00 yy=    0.31 xz=    0.00 yz=    0.00 zz=    0.47


 Major CI contributions to CI states

State    1  0.0000     CI coeff  CI percent
    Config       1  -0.97262154  0.94599266
    Config       3  -0.05232732  0.00273815
    Config      14   0.05352607  0.00286504
    Config      25   0.15783469  0.02491179
    Config      35  -0.11938076  0.01425177
    Config      74   0.05864030  0.00343868
 Total coeff printed             0.99419809
  
State    2  0.5518     CI coeff  CI percent
    Config       2  -0.97713860  0.95479985
    Config       4  -0.04505541  0.00202999
    Config      13   0.11901841  0.01416538
    Config      28   0.15001642  0.02250493
    Config      70  -0.04750878  0.00225708
 Total coeff printed             0.99575723
  
State    3  5.6224     CI coeff  CI percent
    Config       1  -0.05931146  0.00351785
    Config       3   0.80653983  0.65050649
    Config       5  -0.19076215  0.03639020
    Config       9   0.46242845  0.21384007
    Config      14  -0.26168564  0.06847938
    Config      20  -0.09996762  0.00999352
    Config      25  -0.08818778  0.00777709
    Config      35  -0.07164720  0.00513332
 Total coeff printed             0.99563792
  
State    4  5.7343     CI coeff  CI percent
    Config       2   0.06953107  0.00483457
    Config       4  -0.77076197  0.59407402
    Config       6   0.27991317  0.07835138
    Config       7  -0.46803246  0.21905439
    Config      13   0.26818175  0.07192145
    Config      19  -0.16469791  0.02712540
    Config      24  -0.05009583  0.00250959
 Total coeff printed             0.99787080
  
State    5  6.3800     CI coeff  CI percent
    Config       3  -0.55883827  0.31230022
    Config       5  -0.43805098  0.19188866
    Config       9   0.54831010  0.30064397
    Config      14  -0.40373231  0.16299978
    Config      20   0.07356492  0.00541180
    Config      25  -0.10613579  0.01126481
    Config      35  -0.11366987  0.01292084
 Total coeff printed             0.99743007
  
State    6  6.3808     CI coeff  CI percent
    Config       4  -0.57598556  0.33175937
    Config       6  -0.56982042  0.32469531
    Config       7   0.45675384  0.20862407
    Config      13  -0.32295711  0.10430130
    Config      19  -0.13380018  0.01790249
    Config      24   0.10106596  0.01021433
 Total coeff printed             0.99749687
  
State    7  7.5054     CI coeff  CI percent
    Config       2  -0.05777314  0.00333774
    Config       4  -0.15246491  0.02324555
    Config       6   0.74618144  0.55678675
    Config       7   0.53923112  0.29077020
    Config      13  -0.31413772  0.09868250
    Config      19  -0.04555743  0.00207548
    Config      24  -0.14202317  0.02017058
 Total coeff printed             0.99506879
  
State    8  7.7091     CI coeff  CI percent
    Config       3   0.10833324  0.01173609
    Config       5  -0.87593216  0.76725714
    Config       9  -0.40350417  0.16281562
    Config      14   0.20799612  0.04326238
    Config      25   0.08751420  0.00765874
    Config      35   0.06320761  0.00399520
    Config      49   0.04133756  0.00170879
 Total coeff printed             0.99843397
  
State    9  8.2693     CI coeff  CI percent
    Config      10  -0.91532960  0.83782827
    Config      11   0.31268847  0.09777408
    Config      18   0.09731382  0.00946998
    Config      21  -0.09101897  0.00828445
    Config      37   0.07981079  0.00636976
    Config      47   0.15700230  0.02464972
    Config      48  -0.10947314  0.01198437
    Config      71  -0.05271367  0.00277873
 Total coeff printed             0.99913937
  
State   10  8.5752     CI coeff  CI percent
    Config       8  -0.93409909  0.87254110
    Config      12   0.30934477  0.09569419
    Config      15   0.05001632  0.00250163
    Config      36  -0.12329682  0.01520211
    Config      42  -0.10821362  0.01171019
 Total coeff printed             0.99764922
  
State   11  9.1820     CI coeff  CI percent
    Config       8  -0.32288486  0.10425463
    Config      12  -0.92439413  0.85450451
    Config      22  -0.12836837  0.01647844
    Config      26  -0.06882402  0.00473675
    Config      42   0.13697880  0.01876319
 Total coeff printed             0.99873752
  
State   12  9.4854     CI coeff  CI percent
    Config      10   0.28775461  0.08280272
    Config      11   0.94733931  0.89745177
    Config      18  -0.06333876  0.00401180
    Config      21   0.04720256  0.00222808
    Config      32   0.04478289  0.00200551
    Config      47  -0.08567774  0.00734068
 Total coeff printed             0.99584055
  
State   13 10.6951     CI coeff  CI percent
    Config       1  -0.09060550  0.00820936
    Config       5   0.05071704  0.00257222
    Config       9  -0.50802154  0.25808588
    Config      14  -0.77432813  0.59958406
    Config      20  -0.08078887  0.00652684
    Config      25  -0.19030479  0.03621591
    Config      35   0.08225563  0.00676599
    Config      41  -0.21043833  0.04428429
    Config      49   0.16109200  0.02595063
    Config     106   0.07180782  0.00515636
 Total coeff printed             0.99335154
  
State   14 11.3880     CI coeff  CI percent
    Config       2   0.12897099  0.01663352
    Config       7   0.49655804  0.24656989
    Config      13   0.78794614  0.62085912
    Config      19  -0.05594252  0.00312957
    Config      24   0.07164532  0.00513305
    Config      28   0.21627512  0.04677493
    Config      43   0.22451624  0.05040754
    Config      64   0.04379899  0.00191835
    Config     108  -0.07338800  0.00538580
 Total coeff printed             0.99681176
  
State   15 12.6706     CI coeff  CI percent
    Config      10  -0.14727677  0.02169045
    Config      11  -0.05099073  0.00260005
    Config      17  -0.58634854  0.34380461
    Config      18  -0.67374921  0.45393800
    Config      21   0.29360646  0.08620476
    Config      32   0.21100799  0.04452437
    Config      40   0.08292866  0.00687716
    Config      44   0.04346836  0.00188950
    Config      47  -0.06176699  0.00381516
    Config      48  -0.05366408  0.00287983
    Config      65   0.09394981  0.00882657
    Config      71   0.09178025  0.00842361
    Config      77  -0.09940943  0.00988224
 Total coeff printed             0.99535631
  
State   16 12.8309     CI coeff  CI percent
    Config       8   0.06956610  0.00483944
    Config      15   0.72460050  0.52504588
    Config      22  -0.38754135  0.15018829
    Config      23   0.50502730  0.25505258
    Config      26  -0.24412658  0.05959779
    Config     102  -0.04059288  0.00164778
 Total coeff printed             0.99637177
  
State   17 13.2339     CI coeff  CI percent
    Config      10  -0.07607235  0.00578700
    Config      16   0.35897737  0.12886475
    Config      17   0.71310714  0.50852180
    Config      18  -0.45562844  0.20759728
    Config      21   0.26299822  0.06916806
    Config      32   0.16154375  0.02609638
    Config      37  -0.04019449  0.00161560
    Config      40  -0.11129892  0.01238745
    Config      44  -0.05170895  0.00267382
    Config      45  -0.04039823  0.00163202
    Config      47  -0.05746312  0.00330201
    Config      48  -0.04372711  0.00191206
    Config      65  -0.09825353  0.00965376
    Config      71   0.05396976  0.00291274
    Config      77   0.12610482  0.01590242
 Total coeff printed             0.99802714
  
State   18 14.4534     CI coeff  CI percent
    Config      12   0.12167415  0.01480460
    Config      15  -0.53968330  0.29125807
    Config      22  -0.67701659  0.45835146
    Config      26  -0.47569129  0.22628220
    Config      36  -0.08322203  0.00692591
 Total coeff printed             0.99762223
  
State   19 14.6961     CI coeff  CI percent
    Config      10  -0.05590988  0.00312591
    Config      16  -0.89866991  0.80760760
    Config      17   0.23179121  0.05372717
    Config      18  -0.07744709  0.00599805
    Config      21   0.33343968  0.11118202
    Config      32   0.04448162  0.00197861
    Config      37  -0.05408343  0.00292502
    Config      65  -0.06852920  0.00469625
    Config      71   0.05161179  0.00266378
 Total coeff printed             0.99390442
  
State   20 14.9073     CI coeff  CI percent
    Config       1   0.04080786  0.00166528
    Config       3   0.10370158  0.01075402
    Config      14  -0.16862933  0.02843585
    Config      20   0.82297384  0.67728595
    Config      25   0.41361899  0.17108067
    Config      35   0.29430111  0.08661314
    Config      49  -0.05207957  0.00271228
    Config      62  -0.10519222  0.01106540
    Config      93  -0.05268547  0.00277576
 Total coeff printed             0.99238836
  
State   21 15.5121     CI coeff  CI percent
    Config       4   0.20651243  0.04264738
    Config       6  -0.05326035  0.00283666
    Config      19  -0.92842369  0.86197055
    Config      24  -0.28861395  0.08329801
    Config      28  -0.07150387  0.00511280
 Total coeff printed             0.99586541
  
State   22 15.5939     CI coeff  CI percent
    Config      10  -0.04854365  0.00235649
    Config      16   0.24223880  0.05867964
    Config      17  -0.10681517  0.01140948
    Config      18   0.41358893  0.17105580
    Config      21   0.82501766  0.68065415
    Config      32  -0.20458480  0.04185494
    Config      37  -0.14077837  0.01981855
    Config      47   0.05265962  0.00277304
    Config      48   0.08031036  0.00644975
 Total coeff printed             0.99505183
  
State   23 15.6859     CI coeff  CI percent
    Config       4  -0.06810792  0.00463869
    Config       6  -0.16039570  0.02572678
    Config       7   0.04434083  0.00196611
    Config      13   0.08133139  0.00661480
    Config      19   0.29145842  0.08494801
    Config      24  -0.91704322  0.84096827
    Config      68   0.11421194  0.01304437
    Config      91   0.10752364  0.01156133
    Config     115  -0.04244560  0.00180163
    Config     120  -0.05754391  0.00331130
 Total coeff printed             0.99458128
  
State   24 15.7172     CI coeff  CI percent
    Config       3  -0.06172856  0.00381042
    Config       9   0.11058507  0.01222906
    Config      14  -0.15716350  0.02470036
    Config      20  -0.52828072  0.27908052
    Config      25   0.70009913  0.49013879
    Config      35   0.40716895  0.16578656
    Config      62   0.07155005  0.00511941
    Config      74  -0.06419971  0.00412160
    Config      93  -0.08278525  0.00685340
    Config     121   0.04423036  0.00195632
 Total coeff printed             0.99379644
  
State   25 16.6901     CI coeff  CI percent
    Config      12  -0.07037249  0.00495229
    Config      15  -0.38444654  0.14779914
    Config      22   0.07720618  0.00596079
    Config      23   0.79172997  0.62683634
    Config      26   0.37092495  0.13758532
    Config      31   0.06198793  0.00384250
    Config      36  -0.26297550  0.06915611
    Config      42  -0.05261251  0.00276808
 Total coeff printed             0.99890057
  
State   26 17.9422     CI coeff  CI percent
    Config       1   0.15103833  0.02281258
    Config       3   0.04148876  0.00172132
    Config      14  -0.04371046  0.00191060
    Config      25   0.41979404  0.17622703
    Config      35  -0.67304690  0.45299213
    Config      41  -0.04079227  0.00166401
    Config      49   0.54897977  0.30137879
    Config      74  -0.17087571  0.02919851
    Config     118  -0.06439502  0.00414672
 Total coeff printed             0.99205168
  
State   27 18.4337     CI coeff  CI percent
    Config       8  -0.05302223  0.00281136
    Config      12   0.08402695  0.00706053
    Config      15   0.06946253  0.00482504
    Config      22  -0.56171935  0.31552863
    Config      23  -0.17743648  0.03148370
    Config      26   0.72724670  0.52888776
    Config      31  -0.07111580  0.00505746
    Config      34  -0.11269036  0.01269912
    Config      36   0.12170909  0.01481310
    Config      42   0.26143678  0.06834919
    Config      92   0.05606247  0.00314300
    Config     102  -0.06256729  0.00391467
 Total coeff printed             0.99857355
  
State   28 18.8103     CI coeff  CI percent
    Config      10  -0.06471589  0.00418815
    Config      18   0.30665547  0.09403758
    Config      27  -0.24015672  0.05767525
    Config      30  -0.23529268  0.05536264
    Config      32   0.78233605  0.61204969
    Config      37  -0.20520672  0.04210980
    Config      44   0.04604529  0.00212017
    Config      47  -0.32822675  0.10773280
    Config      48   0.05697011  0.00324559
    Config      71  -0.12443666  0.01548448
 Total coeff printed             0.99400615
  
State   29 18.9603     CI coeff  CI percent
    Config      18  -0.11442268  0.01309255
    Config      27  -0.48095254  0.23131535
    Config      30  -0.79721795  0.63555646
    Config      32  -0.28580376  0.08168379
    Config      47   0.11618844  0.01349975
    Config      69   0.06031470  0.00363786
    Config      71   0.04220501  0.00178126
    Config      82   0.12801991  0.01638910
 Total coeff printed             0.99695612
  
State   30 19.1413     CI coeff  CI percent
    Config      23   0.08279199  0.00685451
    Config      29   0.59196529  0.35042290
    Config      31  -0.78098413  0.60993621
    Config      36   0.07246517  0.00525120
    Config      54   0.08627090  0.00744267
    Config      55   0.09943127  0.00988658
    Config      58  -0.04564769  0.00208371
    Config      84  -0.05550870  0.00308122
 Total coeff printed             0.99495900
  
State   31 19.6797     CI coeff  CI percent
    Config       2   0.10416744  0.01085086
    Config       7  -0.07356809  0.00541226
    Config      13  -0.18754252  0.03517220
    Config      24  -0.08356154  0.00698253
    Config      28   0.93051851  0.86586470
    Config      43  -0.13228095  0.01749825
    Config      70   0.22304843  0.04975060
    Config     116  -0.06330352  0.00400734
 Total coeff printed             0.99553874
  
State   32 19.6799     CI coeff  CI percent
    Config      29   0.63374717  0.40163548
    Config      31   0.45190362  0.20421688
    Config      33  -0.33712547  0.11365358
    Config      34  -0.48978272  0.23988712
    Config      36  -0.07716744  0.00595481
    Config      54   0.11637001  0.01354198
    Config      55  -0.08149084  0.00664076
    Config      57  -0.04286208  0.00183716
    Config      85   0.04311603  0.00185899
    Config      87   0.05861917  0.00343621
 Total coeff printed             0.99266297
  
State   33 19.7070     CI coeff  CI percent
    Config      27  -0.49682169  0.24683180
    Config      30   0.32002198  0.10241407
    Config      37  -0.07349237  0.00540113
    Config      40   0.53986304  0.29145210
    Config      44  -0.55698268  0.31022971
    Config      48  -0.08228634  0.00677104
    Config      65  -0.13772364  0.01896780
    Config      69  -0.04578031  0.00209584
    Config      77  -0.09015446  0.00812783
 Total coeff printed             0.99229131
  
State   34 19.7285     CI coeff  CI percent
    Config      22   0.06457939  0.00417050
    Config      23   0.06227487  0.00387816
    Config      26  -0.08242029  0.00679310
    Config      29  -0.46501141  0.21623562
    Config      31  -0.35749600  0.12780339
    Config      33  -0.44815532  0.20084319
    Config      34  -0.64197826  0.41213609
    Config      54  -0.08749712  0.00765575
    Config      55   0.06662996  0.00443955
    Config      56  -0.04593136  0.00210969
    Config      57  -0.05735873  0.00329002
    Config      87   0.07379674  0.00544596
 Total coeff printed             0.99480101
  
State   35 19.7568     CI coeff  CI percent
    Config      18   0.04068424  0.00165521
    Config      21   0.04666679  0.00217779
    Config      27   0.66420546  0.44116889
    Config      30  -0.42056696  0.17687657
    Config      32   0.09518776  0.00906071
    Config      37   0.07118881  0.00506785
    Config      40   0.40570932  0.16460005
    Config      44  -0.41336759  0.17087276
    Config      47  -0.04926910  0.00242744
    Config      65  -0.10002183  0.01000437
    Config      69   0.05716310  0.00326762
    Config      77  -0.06691937  0.00447820
    Config      82   0.04771689  0.00227690
 Total coeff printed             0.99393436
  
State   36 20.3530     CI coeff  CI percent
    Config      22   0.04518950  0.00204209
    Config      26  -0.06065487  0.00367901
    Config      33   0.81494024  0.66412760
    Config      34  -0.54744938  0.29970083
    Config      42   0.05787744  0.00334980
    Config      56   0.12126837  0.01470602
    Config      57  -0.07771779  0.00604006
    Config      92   0.05594121  0.00312942
 Total coeff printed             0.99677482
  
State   37 21.8626     CI coeff  CI percent
    Config      38   0.95303399  0.90827378
    Config      41  -0.04131216  0.00170669
    Config      52  -0.07323566  0.00536346
    Config      59   0.07534958  0.00567756
    Config      62  -0.04151097  0.00172316
    Config      63   0.08318298  0.00691941
    Config      72  -0.08580025  0.00736168
    Config      75   0.06698358  0.00448680
    Config      79   0.05571775  0.00310447
    Config      88  -0.18555733  0.03443152
    Config      90  -0.10277474  0.01056265
    Config      94  -0.05913752  0.00349725
 Total coeff printed             0.99310843
  
State   38 22.5150     CI coeff  CI percent
    Config      39  -0.96276896  0.92692407
    Config      43  -0.14837669  0.02201564
    Config      64  -0.08274658  0.00684700
    Config      66   0.07762963  0.00602636
    Config      78  -0.07522189  0.00565833
    Config      81  -0.16502201  0.02723226
 Total coeff printed             0.99470366
  
State   39 22.5947     CI coeff  CI percent
    Config      21  -0.11158656  0.01245156
    Config      27   0.12623928  0.01593636
    Config      32  -0.23144421  0.05356642
    Config      37  -0.80616606  0.64990371
    Config      40  -0.07146120  0.00510670
    Config      47  -0.17701272  0.03133350
    Config      48  -0.45272305  0.20495816
    Config      71  -0.13025403  0.01696611
    Config      89  -0.04031752  0.00162550
    Config     109   0.05529037  0.00305703
 Total coeff printed             0.99490505
  
State   40 22.7902     CI coeff  CI percent
    Config       8   0.10461862  0.01094506
    Config      15   0.14840292  0.02202343
    Config      23  -0.23224954  0.05393985
    Config      31  -0.13695281  0.01875607
    Config      36  -0.93320450  0.87087063
    Config      42   0.12750951  0.01625867
    Config      85   0.04045330  0.00163647
 Total coeff printed             0.99443018
  
State   41 23.2789     CI coeff  CI percent
    Config       9  -0.09775162  0.00955538
    Config      14  -0.13037810  0.01699845
    Config      38   0.09701325  0.00941157
    Config      41   0.87708438  0.76927701
    Config      49   0.09083898  0.00825172
    Config      51   0.10335469  0.01068219
    Config      52   0.25263421  0.06382404
    Config      59  -0.12844346  0.01649772
    Config      73  -0.06820583  0.00465204
    Config      74   0.11155439  0.01244438
    Config      75   0.06464178  0.00417856
    Config      79  -0.07386110  0.00545546
    Config      90   0.08668816  0.00751484
    Config      93  -0.19447574  0.03782081
    Config      94  -0.09647396  0.00930723
    Config      97  -0.06187748  0.00382882
    Config     106   0.07300603  0.00532988
 Total coeff printed             0.99503011
  
State   42 23.5226     CI coeff  CI percent
    Config      10  -0.09350491  0.00874317
    Config      18  -0.05666110  0.00321048
    Config      21  -0.14800204  0.02190460
    Config      27   0.06413057  0.00411273
    Config      37  -0.48266172  0.23296233
    Config      40   0.09387913  0.00881329
    Config      47   0.26157470  0.06842132
    Config      48   0.73199723  0.53581995
    Config      71   0.30135389  0.09081417
    Config      89  -0.11339129  0.01285758
    Config     101  -0.08262320  0.00682659
 Total coeff printed             0.99448622
  
State   43 24.6492     CI coeff  CI percent
    Config       7  -0.13627717  0.01857147
    Config      13  -0.19317642  0.03731713
    Config      28   0.09227659  0.00851497
    Config      39  -0.16927495  0.02865401
    Config      43   0.92062338  0.84754741
    Config      53   0.13417435  0.01800276
    Config      68   0.04115207  0.00169349
    Config      70  -0.05989257  0.00358712
    Config      78  -0.08713633  0.00759274
    Config      81   0.13103385  0.01716987
    Config     108   0.08988587  0.00807947
 Total coeff printed             0.99673043
  
State   44 24.8195     CI coeff  CI percent
    Config       8  -0.05864466  0.00343920
    Config      12   0.13552177  0.01836615
    Config      22   0.18850575  0.03553442
    Config      23   0.13540026  0.01833323
    Config      26  -0.16428514  0.02698961
    Config      34   0.11143455  0.01241766
    Config      36   0.05748869  0.00330495
    Config      42   0.91944239  0.84537431
    Config      85  -0.07061549  0.00498655
    Config      92   0.14115287  0.01992413
    Config     102   0.08152196  0.00664583
 Total coeff printed             0.99531603
  
State   45 24.8763     CI coeff  CI percent
    Config      17   0.09985444  0.00997091
    Config      40   0.21837868  0.04768925
    Config      44   0.13226081  0.01749292
    Config      45   0.92726115  0.85981323
    Config      50  -0.04642520  0.00215530
    Config      65   0.17834783  0.03180795
    Config      77   0.12429543  0.01544935
    Config      95  -0.11294552  0.01275669
 Total coeff printed             0.99713560
  
State   46 25.5835     CI coeff  CI percent
    Config      46   0.99999871  0.99999742
 Total coeff printed             0.99999742
  
State   47 26.2435     CI coeff  CI percent
    Config      34  -0.06028492  0.00363427
    Config      56  -0.23768862  0.05649588
    Config      57   0.66891928  0.44745301
    Config      60   0.69628481  0.48481254
    Config      87  -0.06234740  0.00388720
 Total coeff printed             0.99628290
  
State   48 26.2436     CI coeff  CI percent
    Config      10   0.14657285  0.02148360
    Config      18  -0.04878633  0.00238011
    Config      21   0.05057161  0.00255749
    Config      32   0.24654010  0.06078202
    Config      37  -0.10622568  0.01128390
    Config      40  -0.06669377  0.00444806
    Config      44  -0.04446096  0.00197678
    Config      45   0.05714987  0.00326611
    Config      47   0.73619168  0.54197818
    Config      48  -0.08210425  0.00674111
    Config      50  -0.28575712  0.08165713
    Config      65  -0.04369562  0.00190931
    Config      71  -0.50397935  0.25399519
    Config     103   0.04657847  0.00216955
 Total coeff printed             0.99662852
  
State   49 26.4107     CI coeff  CI percent
    Config      14  -0.05225525  0.00273061
    Config      38  -0.09294976  0.00863966
    Config      41   0.24795311  0.06148074
    Config      51   0.22300176  0.04972978
    Config      52  -0.75650577  0.57230098
    Config      59   0.37842775  0.14320756
    Config      62  -0.13963327  0.01949745
    Config      63  -0.24384150  0.05945868
    Config      72  -0.21798884  0.04751914
    Config      75   0.06234094  0.00388639
    Config      88  -0.05185943  0.00268940
    Config      97   0.12318151  0.01517368
    Config      99   0.04644138  0.00215680
 Total coeff printed             0.98847088
  
State   50 26.5584     CI coeff  CI percent
    Config      29   0.05690455  0.00323813
    Config      31   0.05471246  0.00299345
    Config      54  -0.30578579  0.09350495
    Config      55   0.64671286  0.41823752
    Config      58   0.68961380  0.47556720
    Config      84  -0.06671541  0.00445095
 Total coeff printed             0.99799220
  
State   51 26.6349     CI coeff  CI percent
    Config      28  -0.04403745  0.00193930
    Config      53   0.43493493  0.18916839
    Config      61  -0.17026435  0.02898995
    Config      64   0.63725856  0.40609847
    Config      66   0.58922541  0.34718658
    Config      70   0.13358164  0.01784406
 Total coeff printed             0.99122675
  
State   52 26.7618     CI coeff  CI percent
    Config       9   0.04313912  0.00186098
    Config      14   0.05117040  0.00261841
    Config      38   0.06933261  0.00480701
    Config      41  -0.20757142  0.04308590
    Config      51   0.71919521  0.51724175
    Config      52   0.26151090  0.06838795
    Config      59  -0.14081059  0.01982762
    Config      62  -0.11649968  0.01357218
    Config      63  -0.53399316  0.28514870
    Config      72  -0.05387298  0.00290230
    Config      73  -0.06981790  0.00487454
    Config      74   0.11888644  0.01413399
    Config      75   0.04870584  0.00237226
    Config      97  -0.04403987  0.00193951
    Config      99   0.10931395  0.01194954
 Total coeff printed             0.99472263
  
State   53 26.8424     CI coeff  CI percent
    Config      17  -0.09682543  0.00937516
    Config      40  -0.52014385  0.27054963
    Config      44  -0.58202096  0.33874840
    Config      45   0.17291407  0.02989928
    Config      47  -0.13291478  0.01766634
    Config      48   0.07636660  0.00583186
    Config      50  -0.40453888  0.16365170
    Config      65   0.23303854  0.05430696
    Config      71   0.11806579  0.01393953
    Config      77   0.06901008  0.00476239
    Config      86  -0.06314264  0.00398699
    Config      95   0.28392577  0.08061384
 Total coeff printed             0.99333208
  
State   54 27.0038     CI coeff  CI percent
    Config      17   0.05407507  0.00292411
    Config      40   0.36706960  0.13474009
    Config      44   0.18227104  0.03322273
    Config      45  -0.30764479  0.09464532
    Config      47  -0.08246234  0.00680004
    Config      50  -0.59868638  0.35842538
    Config      65   0.49132460  0.24139986
    Config      71   0.04037076  0.00162980
    Config      77   0.31676518  0.10034018
    Config      89   0.05711943  0.00326263
    Config      95  -0.14083639  0.01983489
 Total coeff printed             0.99722504
  
State   55 27.7475     CI coeff  CI percent
    Config      13   0.05945774  0.00353522
    Config      28   0.07506979  0.00563547
    Config      43  -0.13638810  0.01860171
    Config      53   0.81784919  0.66887730
    Config      61   0.05828465  0.00339710
    Config      64  -0.43694877  0.19092423
    Config      68   0.06186709  0.00382754
    Config      70  -0.30839375  0.09510670
    Config     108  -0.04417404  0.00195135
    Config     116  -0.04459014  0.00198828
 Total coeff printed             0.99384491
  
State   56 28.2264     CI coeff  CI percent
    Config      20   0.05690551  0.00323824
    Config      51   0.57395549  0.32942491
    Config      52  -0.08952599  0.00801490
    Config      59   0.12788676  0.01635502
    Config      62   0.50878900  0.25886625
    Config      63   0.54239719  0.29419471
    Config      72   0.14051526  0.01974454
    Config      73  -0.17050922  0.02907339
    Config      74  -0.15377027  0.02364530
    Config      88   0.05529842  0.00305792
    Config      99  -0.06025941  0.00363120
    Config     114   0.04860683  0.00236262
 Total coeff printed             0.99160900
  
State   57 28.2692     CI coeff  CI percent
    Config      29  -0.11568932  0.01338402
    Config      31   0.06266861  0.00392735
    Config      54   0.78745356  0.62008311
    Config      55   0.54793861  0.30023672
    Config      58  -0.14468054  0.02093246
    Config      84   0.18972484  0.03599552
    Config     100   0.05492067  0.00301628
 Total coeff printed             0.99757546
  
State   58 28.3202     CI coeff  CI percent
    Config      39  -0.05635002  0.00317532
    Config      53   0.05651327  0.00319375
    Config      61   0.94198778  0.88734097
    Config      64   0.18800976  0.03534767
    Config      70   0.07416002  0.00549971
    Config      76  -0.08064077  0.00650293
    Config      80  -0.13396813  0.01794746
    Config      83  -0.17547565  0.03079170
    Config      91  -0.06496473  0.00422042
 Total coeff printed             0.99401994
  
State   59 28.4739     CI coeff  CI percent
    Config      10  -0.04133179  0.00170832
    Config      32  -0.07308751  0.00534178
    Config      44   0.19843269  0.03937553
    Config      45   0.09023176  0.00814177
    Config      47  -0.18202790  0.03313416
    Config      48   0.06737071  0.00453881
    Config      50  -0.60459178  0.36553122
    Config      65  -0.61441927  0.37751104
    Config      67   0.05522463  0.00304976
    Config      69  -0.18490261  0.03418898
    Config      71   0.06748323  0.00455399
    Config      77  -0.31963696  0.10216779
    Config      82   0.10144662  0.01029142
    Config      86   0.04547375  0.00206786
    Config      95  -0.05145075  0.00264718
    Config     103   0.04471329  0.00199928
 Total coeff printed             0.99624888
  
State   60 28.4976     CI coeff  CI percent
    Config      50   0.13190607  0.01739921
    Config      65   0.14149952  0.02002211
    Config      67   0.25810412  0.06661774
    Config      69  -0.82438238  0.67960631
    Config      77   0.07721183  0.00596167
    Config      82   0.45278315  0.20501258
 Total coeff printed             0.99461962
  
State   61 28.5268     CI coeff  CI percent
    Config      33  -0.11482530  0.01318485
    Config      56   0.92117565  0.84856459
    Config      57   0.35074369  0.12302113
    Config      87   0.10343347  0.01069848
    Config     102  -0.04304138  0.00185256
 Total coeff printed             0.99732161
  
State   62 28.7060     CI coeff  CI percent
    Config      29   0.11286689  0.01273893
    Config      31   0.10259043  0.01052480
    Config      54  -0.50478993  0.25481287
    Config      55   0.45613127  0.20805574
    Config      58  -0.64043325  0.41015475
    Config      84   0.31803384  0.10114553
 Total coeff printed             0.99743262
  
State   63 28.8026     CI coeff  CI percent
    Config      52  -0.41347712  0.17096333
    Config      59  -0.86462589  0.74757793
    Config      62   0.09996116  0.00999223
    Config      72  -0.17104444  0.02925620
    Config      73  -0.11798491  0.01392044
    Config      74  -0.09464996  0.00895861
    Config      75  -0.05891378  0.00347083
    Config      79  -0.05279172  0.00278697
    Config     111  -0.07240818  0.00524294
 Total coeff printed             0.99216949
  
State   64 29.0958     CI coeff  CI percent
    Config      20  -0.08217776  0.00675318
    Config      38  -0.05707366  0.00325740
    Config      51   0.24280415  0.05895386
    Config      59  -0.13247159  0.01754872
    Config      62  -0.77378004  0.59873555
    Config      63   0.45509864  0.20711478
    Config      72   0.17091110  0.02921061
    Config      73   0.14191238  0.02013912
    Config      74  -0.13947717  0.01945388
    Config      75   0.15556947  0.02420186
    Config      88   0.04261919  0.00181640
    Config      94  -0.04330985  0.00187574
    Config     107   0.04629114  0.00214287
 Total coeff printed             0.99120397
  
State   65 29.1825     CI coeff  CI percent
    Config      33   0.06754615  0.00456248
    Config      34  -0.04244615  0.00180168
    Config      56  -0.27135530  0.07363370
    Config      57   0.59746672  0.35696648
    Config      60  -0.64199564  0.41215840
    Config      87   0.38488164  0.14813388
 Total coeff printed             0.99725661
  
State   66 29.5909     CI coeff  CI percent
    Config       6  -0.04691383  0.00220091
    Config      24  -0.07738869  0.00598901
    Config      43   0.04539094  0.00206034
    Config      53   0.10454344  0.01092933
    Config      61   0.04362233  0.00190291
    Config      64  -0.05240407  0.00274619
    Config      66  -0.09933332  0.00986711
    Config      68  -0.92655370  0.85850176
    Config      70   0.12306233  0.01514434
    Config      76  -0.16462677  0.02710197
    Config      78   0.04004730  0.00160379
    Config      80   0.15676635  0.02457569
    Config      91   0.15140639  0.02292390
    Config      96  -0.08470525  0.00717498
    Config     115  -0.06606052  0.00436399
 Total coeff printed             0.99708620
  
State   67 30.1779     CI coeff  CI percent
    Config      67  -0.95879478  0.91928743
    Config      69  -0.26841471  0.07204646
    Config      82   0.05578420  0.00311188
    Config     101  -0.05805322  0.00337018
 Total coeff printed             0.99781594
  
State   68 31.2724     CI coeff  CI percent
    Config       2  -0.04173793  0.00174205
    Config      28  -0.10213771  0.01043211
    Config      39  -0.08428369  0.00710374
    Config      53   0.31445583  0.09888247
    Config      61  -0.09888093  0.00977744
    Config      64   0.26666213  0.07110869
    Config      66  -0.67565815  0.45651393
    Config      68   0.15500015  0.02402505
    Config      70   0.51484892  0.26506941
    Config      76   0.05648629  0.00319070
    Config      78   0.20940373  0.04384992
    Config     112  -0.04032369  0.00162600
    Config     116   0.06994224  0.00489192
 Total coeff printed             0.99821343
  
State   69 31.9113     CI coeff  CI percent
    Config       9  -0.16794464  0.02820540
    Config      14  -0.12117534  0.01468346
    Config      25   0.14308805  0.02047419
    Config      35  -0.42834817  0.18348216
    Config      49  -0.75429445  0.56896012
    Config      52   0.09353764  0.00874929
    Config      59   0.04634453  0.00214782
    Config      63  -0.05120510  0.00262196
    Config      72  -0.15218286  0.02315962
    Config      74  -0.31655709  0.10020839
    Config      93  -0.19117223  0.03654682
    Config      97  -0.05308897  0.00281844
    Config     121   0.04802093  0.00230601
 Total coeff printed             0.99436368
  
State   70 32.3768     CI coeff  CI percent
    Config      35  -0.05197403  0.00270130
    Config      38   0.13648517  0.01862820
    Config      41   0.04213187  0.00177509
    Config      49  -0.08932282  0.00797857
    Config      52  -0.17719661  0.03139864
    Config      59  -0.04454001  0.00198381
    Config      63  -0.23783964  0.05656770
    Config      72   0.76143443  0.57978239
    Config      73   0.09159551  0.00838974
    Config      74  -0.12090275  0.01461747
    Config      75  -0.31715831  0.10058940
    Config      79  -0.09637548  0.00928823
    Config      88   0.28644440  0.08205040
    Config      90  -0.06143159  0.00377384
    Config      94  -0.15074749  0.02272481
    Config      97   0.13830398  0.01912799
    Config      99   0.17898258  0.03203476
 Total coeff printed             0.99341233
  
State   71 32.7733     CI coeff  CI percent
    Config      28   0.11696280  0.01368030
    Config      39  -0.09046835  0.00818452
    Config      43  -0.12106634  0.01465706
    Config      64   0.50728581  0.25733890
    Config      66  -0.39044470  0.15244706
    Config      68  -0.08882193  0.00788933
    Config      70  -0.66814475  0.44641740
    Config      78  -0.18507076  0.03425119
    Config      80   0.04626405  0.00214036
    Config      81   0.22054171  0.04863865
    Config     112  -0.07447946  0.00554719
 Total coeff printed             0.99119196
  
State   72 33.4116     CI coeff  CI percent
    Config      61   0.05080321  0.00258097
    Config      68  -0.10510689  0.01104746
    Config      70   0.07060996  0.00498577
    Config      76   0.89429211  0.79975838
    Config      78  -0.17814002  0.03173387
    Config      83  -0.23820060  0.05673952
    Config      91   0.24607761  0.06055419
    Config      96  -0.15650106  0.02449258
    Config     120   0.04908521  0.00240936
 Total coeff printed             0.99430210
  
State   73 33.4206     CI coeff  CI percent
    Config      20  -0.04046476  0.00163740
    Config      35  -0.05604023  0.00314051
    Config      41  -0.08140603  0.00662694
    Config      49  -0.04460487  0.00198959
    Config      51  -0.13004367  0.01691136
    Config      52  -0.07268022  0.00528242
    Config      59   0.07176114  0.00514966
    Config      62  -0.17576656  0.03089389
    Config      72   0.17074438  0.02915364
    Config      73  -0.89739673  0.80532089
    Config      74   0.17941498  0.03218973
    Config      75   0.18266672  0.03336713
    Config      79  -0.05417100  0.00293450
    Config      93  -0.11049582  0.01220933
    Config      97   0.05280259  0.00278811
 Total coeff printed             0.98959509
  
State   74 34.0696     CI coeff  CI percent
    Config       1  -0.06934284  0.00480843
    Config      25  -0.09798052  0.00960018
    Config      35   0.16635012  0.02767236
    Config      41   0.13284892  0.01764884
    Config      49   0.11523891  0.01328001
    Config      52   0.13304826  0.01770184
    Config      59   0.06476739  0.00419481
    Config      62  -0.11266691  0.01269383
    Config      63  -0.06999918  0.00489988
    Config      72  -0.19055455  0.03631104
    Config      73  -0.32347658  0.10463710
    Config      74  -0.57934006  0.33563491
    Config      75  -0.43060908  0.18542418
    Config      79   0.30752486  0.09457154
    Config      93   0.29195513  0.08523780
    Config      94  -0.09385683  0.00880911
    Config      97  -0.11560114  0.01336362
    Config      99   0.11207555  0.01256093
    Config     118   0.07523085  0.00565968
 Total coeff printed             0.99471008
  
State   75 35.0312     CI coeff  CI percent
    Config      25  -0.04759137  0.00226494
    Config      35   0.07570729  0.00573159
    Config      38  -0.04092612  0.00167495
    Config      51  -0.08302646  0.00689339
    Config      59  -0.06606969  0.00436520
    Config      62   0.16752580  0.02806489
    Config      63  -0.17451963  0.03045710
    Config      72   0.23412396  0.05481403
    Config      73   0.04469375  0.00199753
    Config      74  -0.36438914  0.13277944
    Config      75   0.75512132  0.57020821
    Config      79   0.31827597  0.10129960
    Config      88  -0.05016650  0.00251668
    Config      93   0.14955263  0.02236599
    Config      99   0.09689006  0.00938768
    Config     104  -0.07908943  0.00625514
    Config     107  -0.06700030  0.00448904
    Config     119   0.05653090  0.00319574
 Total coeff printed             0.98876116
  
State   76 35.0830     CI coeff  CI percent
    Config      17  -0.22072119  0.04871784
    Config      40  -0.11421291  0.01304459
    Config      44  -0.17645366  0.03113589
    Config      65  -0.39351911  0.15485729
    Config      77   0.71115972  0.50574814
    Config      89  -0.06502285  0.00422797
    Config      95  -0.48371337  0.23397862
    Config     103  -0.06842487  0.00468196
 Total coeff printed             0.99639231
  
State   77 35.4971     CI coeff  CI percent
    Config      39   0.05383520  0.00289823
    Config      61   0.10345106  0.01070212
    Config      68   0.13620836  0.01855272
    Config      78  -0.17371974  0.03017855
    Config      80   0.87540982  0.76634235
    Config      81  -0.29278514  0.08572314
    Config      83  -0.05278239  0.00278598
    Config      91  -0.14414407  0.02077751
    Config      98  -0.20672622  0.04273573
    Config     105   0.05807789  0.00337304
    Config     110   0.09242040  0.00854153
    Config     117  -0.04469504  0.00199765
 Total coeff printed             0.99460855
  
State   78 35.6042     CI coeff  CI percent
    Config      14  -0.04374339  0.00191348
    Config      25   0.07228181  0.00522466
    Config      35  -0.10674713  0.01139495
    Config      49  -0.12773470  0.01631615
    Config      51   0.04981393  0.00248143
    Config      52  -0.08669889  0.00751670
    Config      63   0.05704037  0.00325360
    Config      72   0.16664864  0.02777177
    Config      74   0.33613296  0.11298537
    Config      75  -0.18369095  0.03374236
    Config      79   0.71392623  0.50969066
    Config      88  -0.22031053  0.04853673
    Config      90   0.45208223  0.20437835
    Config      99  -0.04686732  0.00219655
    Config     121   0.06481633  0.00420116
 Total coeff printed             0.99160392
  
State   79 35.8944     CI coeff  CI percent
    Config      28  -0.06565917  0.00431113
    Config      39   0.09574006  0.00916616
    Config      53   0.07435448  0.00552859
    Config      66  -0.09846738  0.00969583
    Config      70   0.20159063  0.04063878
    Config      76  -0.14591374  0.02129082
    Config      78  -0.89634707  0.80343807
    Config      80  -0.22324444  0.04983808
    Config      81  -0.13378093  0.01789734
    Config      83   0.13364536  0.01786108
    Config      91  -0.06476021  0.00419389
    Config      98   0.05467236  0.00298907
    Config     105   0.06295071  0.00396279
    Config     116   0.04590650  0.00210741
 Total coeff printed             0.99291902
  
State   80 36.5541     CI coeff  CI percent
    Config      38  -0.04464551  0.00199322
    Config      41   0.05608824  0.00314589
    Config      59  -0.06383970  0.00407551
    Config      63   0.04823098  0.00232623
    Config      72  -0.10832968  0.01173532
    Config      74   0.16840222  0.02835931
    Config      79   0.48946104  0.23957211
    Config      88   0.33787316  0.11415827
    Config      90  -0.70087569  0.49122673
    Config      93  -0.21273876  0.04525778
    Config      94  -0.05924545  0.00351002
    Config      97   0.17947232  0.03221031
    Config     104  -0.09164064  0.00839801
    Config     106  -0.04673344  0.00218401
    Config     111  -0.06765427  0.00457710
 Total coeff printed             0.99272983
  
State   81 37.0961     CI coeff  CI percent
    Config      61   0.13399503  0.01795467
    Config      76   0.22402342  0.05018649
    Config      78   0.08365570  0.00699828
    Config      81   0.10022353  0.01004476
    Config      83   0.78566907  0.61727589
    Config      91  -0.30060032  0.09036055
    Config      96  -0.44600441  0.19891993
 Total coeff printed             0.99174057
  
State   82 37.3105     CI coeff  CI percent
    Config      10   0.07154819  0.00511914
    Config      18   0.14224325  0.02023314
    Config      32   0.21831747  0.04766252
    Config      37  -0.06150631  0.00378303
    Config      47   0.32872233  0.10805837
    Config      48  -0.36491278  0.13316133
    Config      65  -0.05965463  0.00355867
    Config      71   0.68521651  0.46952167
    Config      86  -0.15285986  0.02336614
    Config      89   0.40995699  0.16806473
    Config     101  -0.10326141  0.01066292
    Config     103  -0.04792436  0.00229674
 Total coeff printed             0.99548840
  
State   83 37.4024     CI coeff  CI percent
    Config      28  -0.07150456  0.00511290
    Config      39  -0.08797823  0.00774017
    Config      43  -0.13209946  0.01745027
    Config      64  -0.12082510  0.01459870
    Config      66   0.10026874  0.01005382
    Config      68   0.04247396  0.00180404
    Config      70   0.21366820  0.04565410
    Config      78  -0.17329973  0.03003280
    Config      80   0.25097777  0.06298984
    Config      81   0.86678419  0.75131483
    Config      83  -0.10376235  0.01076663
    Config     105  -0.15276902  0.02333837
    Config     108   0.05810102  0.00337573
    Config     112   0.07803842  0.00608999
 Total coeff printed             0.99032219
  
State   84 37.6005     CI coeff  CI percent
    Config      25  -0.04471356  0.00199930
    Config      41   0.06907774  0.00477173
    Config      49   0.08503090  0.00723025
    Config      51   0.04007549  0.00160604
    Config      63  -0.06256840  0.00391480
    Config      72   0.22027743  0.04852215
    Config      74  -0.20156562  0.04062870
    Config      75  -0.10791081  0.01164474
    Config      79   0.04135866  0.00171054
    Config      88  -0.34840789  0.12138806
    Config      90  -0.16628091  0.02764934
    Config      93  -0.28305998  0.08012295
    Config      94   0.77927985  0.60727709
    Config      97   0.09116857  0.00831171
    Config      99  -0.13467013  0.01813604
    Config     104   0.06415948  0.00411644
    Config     106  -0.06099404  0.00372027
 Total coeff printed             0.99275017
  
State   85 37.8345     CI coeff  CI percent
    Config      10   0.04166917  0.00173632
    Config      18   0.06863226  0.00471039
    Config      32   0.09215449  0.00849245
    Config      37   0.04692558  0.00220201
    Config      40   0.04639408  0.00215241
    Config      47   0.14107881  0.01990323
    Config      48  -0.22052568  0.04863157
    Config      50  -0.05313067  0.00282287
    Config      71   0.28142474  0.07919989
    Config      86   0.64920267  0.42146410
    Config      89  -0.61553000  0.37887718
    Config     103  -0.12949994  0.01677023
    Config     109   0.10247692  0.01050152
 Total coeff printed             0.99746417
  
State   86 37.8673     CI coeff  CI percent
    Config      29   0.04077566  0.00166265
    Config      36  -0.04680180  0.00219041
    Config      42  -0.05721933  0.00327405
    Config      84   0.11878701  0.01411035
    Config      85  -0.97829046  0.95705222
    Config     100  -0.12089254  0.01461501
    Config     102  -0.05948354  0.00353829
 Total coeff printed             0.99644299
  
State   87 38.3129     CI coeff  CI percent
    Config       6  -0.04538702  0.00205998
    Config      24  -0.08414500  0.00708038
    Config      61  -0.14841146  0.02202596
    Config      68  -0.13625904  0.01856653
    Config      76   0.06289472  0.00395575
    Config      80  -0.04185063  0.00175148
    Config      83  -0.42101548  0.17725404
    Config      91  -0.77841903  0.60593619
    Config      96  -0.24422782  0.05964723
    Config      98   0.30593001  0.09359317
    Config     110  -0.04132652  0.00170788
    Config     120  -0.05054133  0.00255443
 Total coeff printed             0.99613300
  
State   88 38.6559     CI coeff  CI percent
    Config      37  -0.05435392  0.00295435
    Config      40  -0.04974790  0.00247485
    Config      44  -0.06669289  0.00444794
    Config      47  -0.05348705  0.00286087
    Config      48   0.11510625  0.01324945
    Config      50   0.04051616  0.00164156
    Config      71  -0.10607382  0.01125166
    Config      77   0.04821338  0.00232453
    Config      86   0.73778472  0.54432629
    Config      89   0.62149544  0.38625658
    Config     101  -0.06133608  0.00376212
    Config     103   0.06264299  0.00392414
    Config     109  -0.12429536  0.01544934
 Total coeff printed             0.99492367
  
State   89 39.2757     CI coeff  CI percent
    Config      14  -0.05747081  0.00330289
    Config      25   0.04649100  0.00216141
    Config      35  -0.05181463  0.00268476
    Config      38  -0.15573645  0.02425384
    Config      41   0.06491358  0.00421377
    Config      49  -0.09326018  0.00869746
    Config      52   0.10306079  0.01062153
    Config      59  -0.05688905  0.00323636
    Config      72   0.04848554  0.00235085
    Config      74   0.07334223  0.00537908
    Config      79  -0.11190372  0.01252244
    Config      88  -0.60296783  0.36357020
    Config      90  -0.27481340  0.07552241
    Config      93   0.32547150  0.10593170
    Config      94  -0.23416660  0.05483400
    Config      97   0.54922369  0.30164666
    Config      99   0.07717902  0.00595660
    Config     104  -0.04347072  0.00188970
    Config     121   0.05005991  0.00250599
 Total coeff printed             0.99128166
  
State   90 39.4390     CI coeff  CI percent
    Config      31   0.06722798  0.00451960
    Config      42   0.09225661  0.00851128
    Config      55   0.13348212  0.01781748
    Config      58  -0.18574099  0.03449971
    Config      60   0.05251177  0.00275749
    Config      84  -0.58129606  0.33790511
    Config      85  -0.07132794  0.00508768
    Config      87   0.15496107  0.02401293
    Config      92  -0.72795141  0.52991326
    Config     102   0.17265166  0.02980860
 Total coeff printed             0.99483314
  
State   91 39.4832     CI coeff  CI percent
    Config      31  -0.08321671  0.00692502
    Config      42   0.08396250  0.00704970
    Config      55  -0.17500721  0.03062752
    Config      58   0.22909513  0.05248458
    Config      84   0.70886507  0.50248968
    Config      85   0.08547153  0.00730538
    Config      87   0.12506499  0.01564125
    Config      92  -0.59220887  0.35071135
    Config     102   0.14894259  0.02218390
 Total coeff printed             0.99541838
  
State   92 40.2697     CI coeff  CI percent
    Config      30  -0.16936722  0.02868525
    Config      67   0.08054401  0.00648734
    Config      69  -0.45241988  0.20468375
    Config      82  -0.87182110  0.76007202
 Total coeff printed             0.99992837
  
State   93 40.5006     CI coeff  CI percent
    Config      34   0.12958866  0.01679322
    Config      57  -0.24187818  0.05850506
    Config      60   0.31228449  0.09752160
    Config      87   0.88673109  0.78629203
    Config      92   0.19671344  0.03869618
 Total coeff printed             0.99780808
  
State   94 40.7119     CI coeff  CI percent
    Config      14   0.06509179  0.00423694
    Config      25  -0.07962619  0.00634033
    Config      35   0.05989003  0.00358682
    Config      38  -0.08691755  0.00755466
    Config      41  -0.15413372  0.02375720
    Config      49   0.11238897  0.01263128
    Config      63   0.09657335  0.00932641
    Config      72   0.05168772  0.00267162
    Config      74  -0.08053062  0.00648518
    Config      75  -0.05631941  0.00317188
    Config      88  -0.35379541  0.12517120
    Config      93  -0.62350235  0.38875518
    Config      94  -0.32209742  0.10374675
    Config      97  -0.19225616  0.03696243
    Config      99   0.49710380  0.24711218
    Config     104  -0.04608292  0.00212364
    Config     107  -0.04498946  0.00202405
    Config     118   0.06060310  0.00367274
 Total coeff printed             0.98933049
  
State   95 45.5657     CI coeff  CI percent
    Config      61  -0.09453578  0.00893701
    Config      68   0.05205524  0.00270975
    Config      76  -0.17296686  0.02991753
    Config      80  -0.18424123  0.03394483
    Config      83  -0.26747089  0.07154068
    Config      91   0.04793195  0.00229747
    Config      96  -0.57260216  0.32787323
    Config      98  -0.71572381  0.51226057
    Config     117  -0.08765587  0.00768355
 Total coeff printed             0.99716463
  
State   96 45.9505     CI coeff  CI percent
    Config      85   0.11119267  0.01236381
    Config     100  -0.98460570  0.96944839
    Config     102   0.10598479  0.01123278
 Total coeff printed             0.99304497
  
State   97 46.4011     CI coeff  CI percent
    Config      17   0.06626211  0.00439067
    Config      40  -0.16998035  0.02889332
    Config      44  -0.19485270  0.03796758
    Config      65   0.24172754  0.05843220
    Config      77  -0.46097240  0.21249556
    Config      95  -0.77025770  0.59329692
    Config     101  -0.20980693  0.04401895
    Config     103  -0.05356381  0.00286908
    Config     109  -0.12093750  0.01462588
 Total coeff printed             0.99699016
  
State   98 46.4630     CI coeff  CI percent
    Config      40  -0.04851008  0.00235323
    Config      44  -0.05957755  0.00354948
    Config      65   0.04735543  0.00224254
    Config      67  -0.04726806  0.00223427
    Config      71   0.10041217  0.01008260
    Config      77  -0.07155899  0.00512069
    Config      89   0.07010768  0.00491509
    Config      95  -0.21635389  0.04680900
    Config     101   0.82032214  0.67292841
    Config     103   0.41450988  0.17181844
    Config     109   0.27051283  0.07317719
 Total coeff printed             0.99523094
  
State   99 46.8601     CI coeff  CI percent
    Config       6  -0.04958830  0.00245900
    Config      24  -0.08701866  0.00757225
    Config      68  -0.17112189  0.02928270
    Config      76   0.22185577  0.04921998
    Config      80  -0.16891332  0.02853171
    Config      83   0.09439320  0.00891008
    Config      91  -0.40758183  0.16612295
    Config      96   0.60555893  0.36670162
    Config      98  -0.57959273  0.33592773
    Config     110   0.06344893  0.00402577
 Total coeff printed             0.99875378
  
State  100 47.9211     CI coeff  CI percent
    Config      18  -0.06035151  0.00364230
    Config      37  -0.08665645  0.00750934
    Config      48   0.04152374  0.00172422
    Config      77  -0.06122435  0.00374842
    Config      89   0.07144036  0.00510373
    Config     101   0.49680016  0.24681040
    Config     103  -0.76200027  0.58064442
    Config     109  -0.38276758  0.14651102
 Total coeff printed             0.99569385
  
State  101 48.0908     CI coeff  CI percent
    Config      38   0.05407748  0.00292437
    Config      52   0.10475697  0.01097402
    Config      63   0.11436315  0.01307893
    Config      72  -0.19808749  0.03923866
    Config      75   0.04403416  0.00193901
    Config      88   0.29548335  0.08731041
    Config      90   0.26631244  0.07092232
    Config      94   0.27104807  0.07346706
    Config      97   0.53645565  0.28778466
    Config      99   0.58471807  0.34189522
    Config     104   0.19786291  0.03914973
    Config     107  -0.08746668  0.00765042
    Config     111  -0.04078378  0.00166332
    Config     113   0.12245278  0.01499468
    Config     119   0.04929047  0.00242955
 Total coeff printed             0.99542236
  
State  102 49.0259     CI coeff  CI percent
    Config      22   0.07843793  0.00615251
    Config      36   0.04765765  0.00227125
    Config      42   0.09585394  0.00918798
    Config      85   0.06668524  0.00444692
    Config      92  -0.22191605  0.04924673
    Config     100  -0.08555641  0.00731990
    Config     102  -0.95699148  0.91583268
 Total coeff printed             0.99445798
  
State  103 49.7886     CI coeff  CI percent
    Config      38  -0.06615594  0.00437661
    Config      75   0.07614251  0.00579768
    Config      79   0.05286525  0.00279473
    Config      88  -0.05532317  0.00306065
    Config      90  -0.14532587  0.02111961
    Config      93   0.05105532  0.00260665
    Config      94  -0.08832379  0.00780109
    Config      97  -0.14032890  0.01969220
    Config     104   0.93271035  0.86994860
    Config     107  -0.12111259  0.01466826
    Config     111  -0.04512293  0.00203608
    Config     114  -0.06056775  0.00366845
    Config     119  -0.18956495  0.03593487
 Total coeff printed             0.99350549
  
State  104 50.0750     CI coeff  CI percent
    Config      14   0.08631646  0.00745053
    Config      25  -0.10652441  0.01134745
    Config      35   0.06360347  0.00404540
    Config      41  -0.09475663  0.00897882
    Config      49   0.09372627  0.00878461
    Config      52   0.10402262  0.01082071
    Config      63  -0.11188628  0.01251854
    Config      74  -0.25623508  0.06565641
    Config      88   0.06709658  0.00450195
    Config      90   0.27023025  0.07302439
    Config      93  -0.39958468  0.15966792
    Config      94  -0.30309830  0.09186858
    Config      97   0.48330208  0.23358090
    Config      99  -0.53288146  0.28396265
    Config     104   0.10484498  0.01099247
    Config     107   0.04436740  0.00196847
    Config     111  -0.06918457  0.00478651
 Total coeff printed             0.99395631
  
State  105 50.4650     CI coeff  CI percent
    Config      39  -0.05690859  0.00323859
    Config      43  -0.04470661  0.00199868
    Config      81   0.15353597  0.02357329
    Config     105   0.97379570  0.94827806
    Config     112   0.12995709  0.01688885
    Config     116  -0.04486312  0.00201270
 Total coeff printed             0.99599016
  
State  106 55.1081     CI coeff  CI percent
    Config       9  -0.04529251  0.00205141
    Config      14  -0.04761892  0.00226756
    Config      41   0.04657028  0.00216879
    Config      99  -0.07008170  0.00491144
    Config     104  -0.05538431  0.00306742
    Config     106  -0.82117168  0.67432292
    Config     107  -0.47169018  0.22249162
    Config     111   0.21721930  0.04718423
    Config     121   0.17884880  0.03198689
 Total coeff printed             0.99045229
  
State  107 56.0292     CI coeff  CI percent
    Config       7   0.05326009  0.00283664
    Config      13   0.07356345  0.00541158
    Config      43  -0.05513545  0.00303992
    Config      64  -0.04745703  0.00225217
    Config      81  -0.05772786  0.00333251
    Config     108   0.94298348  0.88921785
    Config     110   0.14973619  0.02242093
    Config     112  -0.24740362  0.06120855
    Config     116   0.06592302  0.00434584
 Total coeff printed             0.99406598
  
State  108 56.1706     CI coeff  CI percent
    Config      75  -0.07517325  0.00565102
    Config      94   0.04250565  0.00180673
    Config      99  -0.08490247  0.00720843
    Config     104  -0.12606564  0.01589255
    Config     106   0.42165718  0.17779478
    Config     107  -0.84729596  0.71791044
    Config     111  -0.22614612  0.05114207
    Config     114   0.06934815  0.00480917
    Config     119  -0.06372499  0.00406087
    Config     121  -0.07077323  0.00500885
 Total coeff printed             0.99128491
  
State  109 56.8694     CI coeff  CI percent
    Config      61   0.04179376  0.00174672
    Config      80   0.07865070  0.00618593
    Config      96   0.04728761  0.00223612
    Config      98  -0.06577531  0.00432639
    Config     108   0.21246575  0.04514170
    Config     110  -0.91388134  0.83517910
    Config     112   0.22656128  0.05133002
    Config     117   0.21288098  0.04531831
    Config     120   0.05046962  0.00254718
 Total coeff printed             0.99401147
  
State  110 58.0408     CI coeff  CI percent
    Config      59   0.06531841  0.00426649
    Config      79  -0.07046596  0.00496545
    Config      97  -0.09535086  0.00909179
    Config     104  -0.05264067  0.00277104
    Config     106  -0.29433892  0.08663540
    Config     107   0.11067601  0.01224918
    Config     111  -0.92266686  0.85131414
    Config     113   0.11297728  0.01276387
    Config     119  -0.07808176  0.00609676
 Total coeff printed             0.99015411
  
State  111 58.6774     CI coeff  CI percent
    Config      64   0.06577009  0.00432571
    Config      66  -0.04451715  0.00198178
    Config      81  -0.09717868  0.00944370
    Config     105  -0.11806090  0.01393838
    Config     108   0.18946056  0.03589530
    Config     110   0.26320563  0.06927721
    Config     112   0.92362484  0.85308284
    Config     116   0.06177133  0.00381570
    Config     117  -0.04976632  0.00247669
 Total coeff printed             0.99423729
  
State  112 59.3703     CI coeff  CI percent
    Config      72   0.04899818  0.00240082
    Config      99  -0.05821378  0.00338884
    Config     104  -0.05768889  0.00332801
    Config     106   0.04304404  0.00185279
    Config     107   0.06939343  0.00481545
    Config     111   0.14262236  0.02034114
    Config     113   0.84169816  0.70845579
    Config     114   0.30004853  0.09002912
    Config     119  -0.39497365  0.15600419
 Total coeff printed             0.99061614
  
State  113 59.6047     CI coeff  CI percent
    Config      48  -0.07569275  0.00572939
    Config      71   0.10158541  0.01031960
    Config      89  -0.16836025  0.02834518
    Config      95   0.06008143  0.00360978
    Config     101   0.07254389  0.00526262
    Config     103   0.45788930  0.20966261
    Config     109  -0.85670258  0.73393930
 Total coeff printed             0.99686848
  
State  114 61.3490     CI coeff  CI percent
    Config      20  -0.04651273  0.00216343
    Config      62  -0.05521698  0.00304892
    Config     104   0.04794702  0.00229892
    Config     106  -0.05688366  0.00323575
    Config     113  -0.35172455  0.12371016
    Config     114   0.92412446  0.85400601
    Config     119  -0.04969670  0.00246976
 Total coeff printed             0.99093295
  
State  115 61.9342     CI coeff  CI percent
    Config      68  -0.05145077  0.00264718
    Config      96  -0.04034392  0.00162763
    Config     110  -0.06738394  0.00454059
    Config     115   0.92766578  0.86056381
    Config     116  -0.24137912  0.05826388
    Config     117  -0.07660063  0.00586766
    Config     120  -0.24699528  0.06100667
 Total coeff printed             0.99451742
  
State  116 63.9955     CI coeff  CI percent
    Config       2  -0.04315842  0.00186265
    Config      28  -0.07341970  0.00539045
    Config      64   0.05141525  0.00264353
    Config      70   0.05937541  0.00352544
    Config     105  -0.04558570  0.00207806
    Config     108   0.08322403  0.00692624
    Config     115  -0.23120277  0.05345472
    Config     116  -0.95568508  0.91333397
    Config     117   0.04732852  0.00223999
    Config     120   0.05230265  0.00273557
 Total coeff printed             0.99419061
  
State  117 65.2276     CI coeff  CI percent
    Config       1  -0.05480801  0.00300392
    Config      25  -0.04039572  0.00163181
    Config      35   0.05240940  0.00274675
    Config      74  -0.05251680  0.00275801
    Config     106  -0.07062555  0.00498797
    Config     118  -0.89372483  0.79874407
    Config     121  -0.42028446  0.17663903
 Total coeff printed             0.99051156
  
State  118 66.5770     CI coeff  CI percent
    Config      83   0.04435251  0.00196715
    Config      96   0.06907563  0.00477144
    Config      98   0.05340475  0.00285207
    Config     110  -0.21363771  0.04564107
    Config     115  -0.07312877  0.00534782
    Config     117  -0.96290724  0.92719036
    Config     120   0.09343511  0.00873012
 Total coeff printed             0.99650002
  
State  119 69.0813     CI coeff  CI percent
    Config      88   0.04301037  0.00184989
    Config      90   0.05396222  0.00291192
    Config      94   0.05318456  0.00282860
    Config      97   0.07406793  0.00548606
    Config      99   0.06853930  0.00469763
    Config     104  -0.15886176  0.02523706
    Config     107   0.04853829  0.00235597
    Config     113  -0.36286658  0.13167216
    Config     114  -0.18160854  0.03298166
    Config     119  -0.88618158  0.78531779
 Total coeff printed             0.99533873
  
State  120 72.5006     CI coeff  CI percent
    Config       6  -0.04589874  0.00210669
    Config      24  -0.07478862  0.00559334
    Config      91  -0.06137754  0.00376720
    Config     110   0.05779521  0.00334029
    Config     115   0.25864589  0.06689770
    Config     117   0.05598609  0.00313444
    Config     120   0.95502782  0.91207813
 Total coeff printed             0.99691779
  
State  121 75.2239     CI coeff  CI percent
    Config      14   0.07536204  0.00567944
    Config      25  -0.08373596  0.00701171
    Config      49   0.05808493  0.00337386
    Config      93  -0.06047895  0.00365770
    Config     106   0.16597446  0.02754752
    Config     118  -0.42066893  0.17696235
    Config     121   0.87605444  0.76747138
 Total coeff printed             0.99170396
  

 -------------------------------------------------------------------------------
 INDO MRCI C.A.S.=(3,1)
 Nitric oxide
 INDO


     NO PARAMETERS MARKED FOR OPTIMIZATION, SO 1SCF WAS USED  
     SCF FIELD WAS ACHIEVED                                   


                              INDO CALCULATION
                                                       MOPAC v22.0.6 MacOS
                                                       Wed Jul 12 16:25:36 2023


          COSMO AREA              =         52.81 SQUARE ANGSTROMS
          COSMO VOLUME            =         34.87 CUBIC ANGSTROMS

          IONIZATION POTENTIAL    =         11.083336 EV          STATE:   1 DOUBLET ????
          HOMO (SOMO) LUMO (EV)   =      -15.676 (-11.083) -1.674
          NO. OF FILLED LEVELS    =          5
          AND NO. OF OPEN LEVELS  =          1
          MOLECULAR WEIGHT        =         30.0061         POINT GROUP:  C*v 

          MOLECULAR DIMENSIONS (Angstroms)

            Atom       Atom       Distance
            O     2    N     1     1.17300
            O     2    N     1     0.00000
            N     1    O     2     0.00000


          SCF CALCULATIONS        =          1

          WALL-CLOCK TIME         =      0.227 SECONDS
          COMPUTATION TIME        =      0.224 SECONDS




   ATOM   CHEMICAL          X               Y               Z
  NUMBER   SYMBOL      (ANGSTROMS)     (ANGSTROMS)     (ANGSTROMS)

     1       N          0.00000000      0.00000000      0.00000000   
     2       O          1.17300000      0.00000000      0.00000000   

                             CARTESIAN COORDINATES

   1    N        0.000000000     0.000000000     0.000000000
   2    O        1.173000000     0.000000000     0.000000000


           Empirical Formula: N O  =     2 atoms



      MOLECULAR POINT GROUP   :   C*v 


                  EIGENVALUES  
 -46.30852 -22.70656 -17.77413 -16.30737 -15.67555 -11.08334  -1.67356  11.42925


              NET ATOMIC CHARGES AND DIPOLE CONTRIBUTIONS

  ATOM NO.   TYPE          CHARGE      No. of ELECS.   s-Pop       p-Pop       
    1          N           0.114882        4.8851     1.83667     3.04845
    2          O          -0.114882        6.1149     1.83417     4.28071
 DIPOLE           X         Y         Z       TOTAL
 POINT-CHG.    -0.647     0.000     0.000     0.647
 HYBRID         0.309    -0.000    -0.000     0.309
 SUM           -0.338    -0.000    -0.000     0.338


          ATOMIC ORBITAL ELECTRON POPULATIONS

     Atom    s        px        py        pz   
    1  N   1.83667   1.08731   1.27356   0.68758
    2  O   1.83417   1.24185   1.72644   1.31242

 **********************
 *                    *
 * JOB ENDED NORMALLY *
 *                    *
 **********************



 TOTAL JOB TIME:             0.26 SECONDS

 == MOPAC DONE ==
