 *******************************************************************************
 **                                                                           **
 **                              MOPAC v22.0.6                                **
 **                                                                           **
 *******************************************************************************
 **          Digital Object Identifier (DOI): 10.5281/zenodo.6511958          **
 **    Visit the DOI location for information on how to cite this program.    **
 *******************************************************************************

                              INDO CALCULATION RESULTS

 *******************************************************************************
 *  CALCULATION DONE:                                Wed Jul 12 16:25:37 2023  *
 *  INDO       - The INDO Hamiltonian to be used
 *  CIS        - C.I. USES 1 ELECTRON EXCITATIONS ONLY
 *
 *
 *
 *                 CHARGE ON SYSTEM = 0
 *
 *
 *
 *  T=         - A TIME OF 172800.0 SECONDS REQUESTED
 *  DUMP=N     - RESTART FILE WRITTEN EVERY 7200.0 SECONDS REQUESTED
 *******************************************************************************
INDO CIS CHARGE=0


   ATOM   CHEMICAL          X               Y               Z
  NUMBER   SYMBOL      (ANGSTROMS)     (ANGSTROMS)     (ANGSTROMS)

     1       C          0.13642800  *   4.31261200  *   0.00000000  *
     2       C          0.65084500  *   3.07095700  *   0.00000000  *
     3       C         -0.13642800  *   1.85596900  *   0.00000000  *
     4       C          0.38926300  *   0.60631000  *   0.00000000  *
     5       C         -0.38926300  *  -0.60631000  *   0.00000000  *
     6       C          0.13642800  *  -1.85596900  *   0.00000000  *
     7       C         -0.65084500  *  -3.07095700  *   0.00000000  *
     8       C         -0.13642800  *  -4.31261200  *   0.00000000  *
     9       H          0.77042500  *   5.19381900  *   0.00000000  *
    10       H         -0.93776100  *   4.48341300  *   0.00000000  *
    11       H          1.73423700  *   2.94537900  *   0.00000000  *
    12       H         -1.22106200  *   1.97279000  *   0.00000000  *
    13       H          1.47457700  *   0.49428800  *   0.00000000  *
    14       H         -1.47457700  *  -0.49428800  *   0.00000000  *
    15       H          1.22106200  *  -1.97279000  *   0.00000000  *
    16       H         -1.73423700  *  -2.94537900  *   0.00000000  *
    17       H          0.93776100  *  -4.48341300  *   0.00000000  *
    18       H         -0.77042500  *  -5.19381900  *   0.00000000  *



          CARTESIAN COORDINATES 

    NO.       ATOM           X           Y           Z

     1         C          0.1364      4.3126      0.0000
     2         C          0.6508      3.0710      0.0000
     3         C         -0.1364      1.8560      0.0000
     4         C          0.3893      0.6063      0.0000
     5         C         -0.3893     -0.6063      0.0000
     6         C          0.1364     -1.8560      0.0000
     7         C         -0.6508     -3.0710      0.0000
     8         C         -0.1364     -4.3126      0.0000
     9         H          0.7704      5.1938      0.0000
    10         H         -0.9378      4.4834      0.0000
    11         H          1.7342      2.9454      0.0000
    12         H         -1.2211      1.9728      0.0000
    13         H          1.4746      0.4943      0.0000
    14         H         -1.4746     -0.4943      0.0000
    15         H          1.2211     -1.9728      0.0000
    16         H         -1.7342     -2.9454      0.0000
    17         H          0.9378     -4.4834      0.0000
    18         H         -0.7704     -5.1938      0.0000

           Empirical Formula: C8 H10  =    18 atoms



      MOLECULAR POINT GROUP   :   C2h 


      RHF CALCULATION, NO. OF DOUBLY OCCUPIED LEVELS = 21

 WARNING: INDO only performs single-point calculations

 Summary of symmetry occupancy in each shell:

 SHELL     
    1   21
    v   21
 TOTAL  42


                     MOLECULAR ORBITALS 






    ROOT NO.    1           2           3           4           5           6

           -40.18242   -38.11382   -35.02542   -31.26233   -26.60464   -24.71871
  
  
  S  C   1   0.15656    -0.28342     0.35740    -0.36109     0.32418    -0.08543
 PX  C   1   0.01125    -0.02285     0.03359    -0.03736     0.01536     0.11226
 PY  C   1  -0.06795     0.10827    -0.09769     0.02568     0.11511    -0.02813
 PZ  C   1  -0.00000     0.00000    -0.00000    -0.00000     0.00000     0.00000
  
  S  C   2   0.27050    -0.40047     0.32949    -0.11186    -0.14967     0.16498
 PX  C   2  -0.04419     0.06609    -0.05211     0.00936     0.02481     0.17554
 PY  C   2  -0.04806     0.01543     0.11135    -0.24419     0.26957    -0.04584
 PZ  C   2  -0.00000     0.00000     0.00000    -0.00000     0.00000     0.00000
  
  S  C   3   0.37051    -0.35024    -0.01637     0.30841    -0.24156    -0.17782
 PX  C   3   0.04963    -0.06132     0.01716     0.05238    -0.08996     0.25360
 PY  C   3  -0.04760    -0.06073     0.21119    -0.14316    -0.16556     0.03423
 PZ  C   3  -0.00000     0.00000     0.00000    -0.00000     0.00000     0.00000
  
  S  C   4   0.41929    -0.14743    -0.32823     0.23598     0.19105     0.15313
 PX  C   4  -0.06038     0.00978     0.06716    -0.02569    -0.07459     0.28616
 PY  C   4   0.00001    -0.13935     0.09461     0.21567    -0.24241    -0.06155
 PZ  C   4  -0.00000    -0.00000     0.00000    -0.00000     0.00000    -0.00000
  
  S  C   5   0.41929     0.14743    -0.32823    -0.23598     0.19105    -0.15313
 PX  C   5   0.06038     0.00978    -0.06716    -0.02569     0.07459     0.28616
 PY  C   5  -0.00001    -0.13935    -0.09461     0.21567     0.24241    -0.06155
 PZ  C   5   0.00000     0.00000    -0.00000    -0.00000    -0.00000     0.00000
  
  S  C   6   0.37051     0.35024    -0.01637    -0.30841    -0.24156     0.17782
 PX  C   6  -0.04963    -0.06132    -0.01716     0.05238     0.08996     0.25360
 PY  C   6   0.04760    -0.06073    -0.21119    -0.14316     0.16556     0.03423
 PZ  C   6   0.00000    -0.00000     0.00000    -0.00000    -0.00000     0.00000
  
  S  C   7   0.27050     0.40047     0.32949     0.11186    -0.14967    -0.16498
 PX  C   7   0.04419     0.06609     0.05211     0.00936    -0.02481     0.17554
 PY  C   7   0.04806     0.01543    -0.11135    -0.24419    -0.26957    -0.04584
 PZ  C   7   0.00000    -0.00000     0.00000    -0.00000     0.00000    -0.00000
  
  S  C   8   0.15656     0.28342     0.35740     0.36109     0.32418     0.08543
 PX  C   8  -0.01125    -0.02285    -0.03359    -0.03736    -0.01536     0.11226
 PY  C   8   0.06795     0.10827     0.09769     0.02568    -0.11511    -0.02813
 PZ  C   8  -0.00000     0.00000    -0.00000    -0.00000     0.00000    -0.00000
  
  S  H   9   0.04987    -0.09740     0.14136    -0.17775     0.22427    -0.01491
  
  S  H  10   0.06518    -0.11656     0.14590    -0.15116     0.16175    -0.12547
  
  S  H  11   0.11162    -0.15869     0.12121    -0.03125    -0.07737     0.21172
  
  S  H  12   0.15156    -0.13949    -0.00451     0.10716    -0.07022    -0.26653
  
  S  H  13   0.17231    -0.05807    -0.12482     0.08495     0.06071     0.28480
  
  S  H  14   0.17231     0.05807    -0.12482    -0.08495     0.06071    -0.28480
  
  S  H  15   0.15156     0.13949    -0.00451    -0.10716    -0.07022     0.26653
  
  S  H  16   0.11162     0.15869     0.12121     0.03125    -0.07737    -0.21172
  
  S  H  17   0.06518     0.11656     0.14590     0.15116     0.16175     0.12547
  
  S  H  18   0.04987     0.09740     0.14136     0.17775     0.22427     0.01491




    ROOT NO.    7           8           9          10          11          12

           -22.86414   -22.65741   -20.09835   -18.94013   -17.37754   -15.84620
  
  
  S  C   1  -0.07559    -0.23695    -0.02480     0.10058     0.01153     0.01372
 PX  C   1   0.21126     0.04317     0.28008    -0.13558    -0.27162     0.21894
 PY  C   1  -0.01552    -0.25610     0.07584     0.32638    -0.20942    -0.29538
 PZ  C   1   0.00000    -0.00000     0.00000     0.00000     0.00000    -0.00000
  
  S  C   2   0.19187     0.24818     0.06140    -0.14058     0.05971    -0.02332
 PX  C   2   0.28377    -0.03004     0.29158     0.03479    -0.18833    -0.12265
 PY  C   2   0.02701    -0.07692     0.11389    -0.23190    -0.02432     0.36835
 PZ  C   2   0.00000    -0.00000     0.00000     0.00000     0.00000    -0.00000
  
  S  C   3  -0.21293     0.01820    -0.01731     0.06876    -0.16684    -0.01819
 PX  C   3   0.22497    -0.03721    -0.03029     0.22977     0.19397    -0.20742
 PY  C   3  -0.07010     0.28555    -0.24596    -0.07945     0.15047    -0.11757
 PZ  C   3   0.00000    -0.00000     0.00000     0.00000     0.00000    -0.00000
  
  S  C   4   0.09380    -0.25988    -0.04832    -0.01805     0.10524     0.14841
 PX  C   4   0.09635    -0.07304    -0.25211     0.16558     0.16525     0.11649
 PY  C   4  -0.01310    -0.13448     0.13795     0.31777    -0.12951    -0.01639
 PZ  C   4  -0.00000     0.00000    -0.00000    -0.00000    -0.00000    -0.00000
  
  S  C   5   0.09380     0.25988     0.04832    -0.01805     0.10524    -0.14841
 PX  C   5  -0.09635    -0.07304    -0.25211    -0.16558    -0.16525     0.11649
 PY  C   5   0.01310    -0.13448     0.13795    -0.31777     0.12951    -0.01639
 PZ  C   5   0.00000    -0.00000    -0.00000    -0.00000    -0.00000    -0.00000
  
  S  C   6  -0.21293    -0.01820     0.01731     0.06876    -0.16684     0.01819
 PX  C   6  -0.22497    -0.03721    -0.03029    -0.22977    -0.19397    -0.20742
 PY  C   6   0.07010     0.28555    -0.24596     0.07945    -0.15047    -0.11757
 PZ  C   6  -0.00000    -0.00000     0.00000     0.00000    -0.00000    -0.00000
  
  S  C   7   0.19187    -0.24818    -0.06140    -0.14058     0.05971     0.02332
 PX  C   7  -0.28377    -0.03004     0.29158    -0.03479     0.18833    -0.12265
 PY  C   7  -0.02701    -0.07692     0.11389     0.23190     0.02432     0.36835
 PZ  C   7  -0.00000    -0.00000    -0.00000    -0.00000    -0.00000    -0.00000
  
  S  C   8  -0.07559     0.23695     0.02480     0.10058     0.01153    -0.01372
 PX  C   8  -0.21126     0.04317     0.28008     0.13558     0.27162     0.21894
 PY  C   8   0.01552    -0.25610     0.07584    -0.32638     0.20942    -0.29538
 PZ  C   8   0.00000    -0.00000     0.00000     0.00000     0.00000    -0.00000
  
  S  H   9   0.03719    -0.24277     0.15322     0.19072    -0.26146    -0.08340
  
  S  H  10  -0.19079    -0.17445    -0.21023     0.18636     0.19302    -0.20816
  
  S  H  11   0.29542     0.10664     0.23030    -0.02250    -0.10957    -0.14674
  
  S  H  12  -0.27154     0.05644    -0.00673    -0.13660    -0.21673     0.14104
  
  S  H  13   0.11593    -0.17280    -0.21457     0.08607     0.18641     0.16912
  
  S  H  14   0.11593     0.17280     0.21457     0.08607     0.18641    -0.16912
  
  S  H  15  -0.27154    -0.05644     0.00673    -0.13660    -0.21673    -0.14104
  
  S  H  16   0.29542    -0.10664    -0.23030    -0.02250    -0.10957     0.14674
  
  S  H  17  -0.19079     0.17445     0.21023     0.18636     0.19302     0.20816
  
  S  H  18   0.03719     0.24277    -0.15322     0.19072    -0.26146     0.08340




    ROOT NO.   13          14          15          16          17          18

           -14.72832   -13.99673   -13.28717   -13.16894   -12.69902   -12.63454
  
  
  S  C   1  -0.03726     0.05023    -0.04639    -0.03799     0.00000     0.01992
 PX  C   1   0.21053     0.29179     0.01321    -0.23214    -0.00000    -0.13214
 PY  C   1   0.26593    -0.11544     0.15298    -0.01363    -0.00000    -0.16922
 PZ  C   1  -0.00000    -0.00000    -0.00000    -0.00000     0.19096    -0.00000
  
  S  C   2  -0.05263    -0.05149    -0.01613    -0.02141     0.00000    -0.06260
 PX  C   2   0.01716    -0.27280     0.07999     0.32215    -0.00000     0.19473
 PY  C   2  -0.15936     0.16587    -0.12791     0.06323     0.00000     0.24842
 PZ  C   2  -0.00000    -0.00000    -0.00000    -0.00000     0.29753    -0.00000
  
  S  C   3   0.09999     0.03621    -0.05661    -0.05822     0.00000    -0.02037
 PX  C   3  -0.20312     0.04615    -0.23061    -0.29035     0.00000    -0.17844
 PY  C   3   0.22966    -0.02431     0.25924    -0.06836    -0.00000    -0.27215
 PZ  C   3  -0.00000    -0.00000     0.00000    -0.00000     0.40939    -0.00000
  
  S  C   4  -0.06282     0.00762    -0.05093     0.01809     0.00000    -0.05061
 PX  C   4   0.17612     0.23904     0.32472     0.09293    -0.00000     0.18985
 PY  C   4  -0.16491     0.18823    -0.21332    -0.06590     0.00000     0.29066
 PZ  C   4   0.00000     0.00000     0.00000     0.00000     0.45542     0.00000
  
  S  C   5   0.06282     0.00762    -0.05093    -0.01809     0.00000    -0.05061
 PX  C   5   0.17612    -0.23904    -0.32472     0.09293     0.00000    -0.18985
 PY  C   5  -0.16491    -0.18823     0.21332    -0.06590    -0.00000    -0.29066
 PZ  C   5   0.00000     0.00000     0.00000     0.00000     0.45542     0.00000
  
  S  C   6  -0.09999     0.03621    -0.05661     0.05822     0.00000    -0.02037
 PX  C   6  -0.20312    -0.04615     0.23061    -0.29035    -0.00000     0.17844
 PY  C   6   0.22966     0.02431    -0.25924    -0.06836     0.00000     0.27215
 PZ  C   6   0.00000     0.00000     0.00000     0.00000     0.40939     0.00000
  
  S  C   7   0.05263    -0.05149    -0.01613     0.02141     0.00000    -0.06260
 PX  C   7   0.01716     0.27280    -0.07999     0.32215     0.00000    -0.19473
 PY  C   7  -0.15936    -0.16587     0.12791     0.06323    -0.00000    -0.24842
 PZ  C   7   0.00000     0.00000     0.00000    -0.00000     0.29753     0.00000
  
  S  C   8   0.03726     0.05023    -0.04639     0.03799     0.00000     0.01992
 PX  C   8   0.21053    -0.29179    -0.01321    -0.23214    -0.00000     0.13214
 PY  C   8   0.26593     0.11544    -0.15298    -0.01363     0.00000     0.16922
 PZ  C   8  -0.00000     0.00000     0.00000    -0.00000     0.19096    -0.00000
  
  S  H   9   0.29145     0.10640     0.10605    -0.16813    -0.00000    -0.20716
  
  S  H  10  -0.16681    -0.25831    -0.00879     0.21315     0.00000     0.12858
  
  S  H  11   0.00804    -0.28758     0.09655     0.29386    -0.00000     0.13505
  
  S  H  12   0.24449    -0.02630     0.22952     0.24213    -0.00000     0.14909
  
  S  H  13   0.12783     0.19060     0.31747     0.10908    -0.00000     0.14366
  
  S  H  14  -0.12783     0.19060     0.31747    -0.10908    -0.00000     0.14366
  
  S  H  15  -0.24449    -0.02630     0.22952    -0.24213    -0.00000     0.14909
  
  S  H  16  -0.00804    -0.28758     0.09655    -0.29386    -0.00000     0.13505
  
  S  H  17   0.16681    -0.25831    -0.00879    -0.21315    -0.00000     0.12858
  
  S  H  18  -0.29145     0.10640     0.10605     0.16813     0.00000    -0.20716




    ROOT NO.   19          20          21          22          23          24

           -11.37466    -9.49368    -7.42554    -0.45458     1.09299     2.22157
  
  
  S  C   1  -0.00000    -0.00000     0.00000     0.00000     0.00000     0.00000
 PX  C   1  -0.00000    -0.00000    -0.00000     0.00000    -0.00000    -0.00000
 PY  C   1   0.00000    -0.00000     0.00000     0.00000     0.00000     0.00000
 PZ  C   1   0.35355     0.44642    -0.38635    -0.38041     0.43611    -0.34573
  
  S  C   2  -0.00000     0.00000    -0.00000    -0.00000    -0.00000    -0.00000
 PX  C   2   0.00000     0.00000     0.00000     0.00000    -0.00000    -0.00000
 PY  C   2   0.00000     0.00000    -0.00000     0.00000     0.00000     0.00000
 PZ  C   2   0.45426     0.39969    -0.19137     0.20034    -0.40731     0.45999
  
  S  C   3  -0.00000    -0.00000    -0.00000     0.00000     0.00000     0.00000
 PX  C   3  -0.00000    -0.00000    -0.00000    -0.00000     0.00000     0.00000
 PY  C   3   0.00000     0.00000    -0.00000    -0.00000    -0.00000    -0.00000
 PZ  C   3   0.36998    -0.09449     0.43243     0.43143    -0.09370    -0.37059
  
  S  C   4  -0.00000     0.00000     0.00000    -0.00000    -0.00000    -0.00000
 PX  C   4   0.00000     0.00000     0.00000     0.00000     0.00000     0.00000
 PY  C   4  -0.00000    -0.00000    -0.00000    -0.00000    -0.00000    -0.00000
 PZ  C   4   0.17820    -0.36336     0.35653    -0.35919     0.36759     0.17759
  
  S  C   5  -0.00000    -0.00000    -0.00000     0.00000     0.00000     0.00000
 PX  C   5  -0.00000     0.00000    -0.00000    -0.00000    -0.00000    -0.00000
 PY  C   5  -0.00000    -0.00000    -0.00000     0.00000     0.00000     0.00000
 PZ  C   5  -0.17820    -0.36336    -0.35653    -0.35919    -0.36759     0.17759
  
  S  C   6  -0.00000    -0.00000     0.00000     0.00000     0.00000     0.00000
 PX  C   6   0.00000     0.00000     0.00000    -0.00000    -0.00000    -0.00000
 PY  C   6   0.00000     0.00000    -0.00000    -0.00000    -0.00000    -0.00000
 PZ  C   6  -0.36998    -0.09449    -0.43243     0.43143     0.09370    -0.37059
  
  S  C   7   0.00000     0.00000    -0.00000    -0.00000    -0.00000    -0.00000
 PX  C   7   0.00000     0.00000    -0.00000    -0.00000    -0.00000    -0.00000
 PY  C   7  -0.00000    -0.00000     0.00000    -0.00000    -0.00000    -0.00000
 PZ  C   7  -0.45426     0.39969     0.19137     0.20034     0.40731     0.45999
  
  S  C   8  -0.00000    -0.00000    -0.00000     0.00000     0.00000     0.00000
 PX  C   8  -0.00000    -0.00000     0.00000    -0.00000     0.00000    -0.00000
 PY  C   8   0.00000     0.00000    -0.00000     0.00000     0.00000     0.00000
 PZ  C   8  -0.35355     0.44642     0.38635    -0.38041    -0.43611    -0.34573
  
  S  H   9   0.00000    -0.00000    -0.00000    -0.00000    -0.00000    -0.00000
  
  S  H  10   0.00000     0.00000     0.00000    -0.00000    -0.00000    -0.00000
  
  S  H  11   0.00000     0.00000     0.00000     0.00000     0.00000     0.00000
  
  S  H  12   0.00000     0.00000    -0.00000    -0.00000    -0.00000    -0.00000
  
  S  H  13   0.00000     0.00000     0.00000     0.00000     0.00000     0.00000
  
  S  H  14   0.00000     0.00000     0.00000    -0.00000    -0.00000    -0.00000
  
  S  H  15   0.00000     0.00000     0.00000    -0.00000    -0.00000    -0.00000
  
  S  H  16  -0.00000    -0.00000    -0.00000     0.00000     0.00000     0.00000
  
  S  H  17  -0.00000    -0.00000     0.00000     0.00000     0.00000     0.00000
  
  S  H  18  -0.00000     0.00000     0.00000    -0.00000    -0.00000    -0.00000




    ROOT NO.   25          26          27          28          29          30

             2.86029     3.02664     3.53495     4.03452     4.45324     4.82282
  
  
  S  C   1  -0.00000    -0.18268    -0.28600     0.31394     0.31382    -0.26604
 PX  C   1  -0.00000    -0.02267    -0.01701    -0.00695    -0.03453     0.05396
 PY  C   1   0.00000     0.05465     0.05330    -0.01020     0.06258    -0.14058
 PZ  C   1   0.18853     0.00000     0.00000     0.00000     0.00000     0.00000
  
  S  C   2   0.00000     0.27499     0.36085    -0.25492    -0.04206    -0.15375
 PX  C   2  -0.00000    -0.04521    -0.02474    -0.01809    -0.02362    -0.03718
 PY  C   2   0.00000    -0.06411    -0.01478    -0.09237    -0.18127     0.17947
 PZ  C   2  -0.30185    -0.00000    -0.00000    -0.00000    -0.00000    -0.00000
  
  S  C   3   0.00000    -0.34488    -0.30351    -0.02985    -0.29020     0.23041
 PX  C   3  -0.00000    -0.04360    -0.02649     0.02011     0.06032    -0.07045
 PY  C   3  -0.00000     0.02662    -0.09311     0.17389     0.06077     0.12266
 PZ  C   3   0.40907    -0.00000    -0.00000     0.00000     0.00000    -0.00000
  
  S  C   4  -0.00000     0.37838     0.11322     0.31829     0.19432     0.17791
 PX  C   4   0.00000    -0.05115     0.00630     0.00789     0.04930     0.04812
 PY  C   4   0.00000    -0.01941     0.13149    -0.09934     0.13379    -0.14970
 PZ  C   4  -0.45388     0.00000     0.00000    -0.00000    -0.00000     0.00000
  
  S  C   5   0.00000    -0.37838     0.11322    -0.31829     0.19432    -0.17791
 PX  C   5  -0.00000    -0.05115    -0.00630     0.00789    -0.04930     0.04812
 PY  C   5   0.00000    -0.01941    -0.13149    -0.09934    -0.13379    -0.14970
 PZ  C   5   0.45388    -0.00000    -0.00000     0.00000    -0.00000    -0.00000
  
  S  C   6   0.00000     0.34488    -0.30351     0.02985    -0.29020    -0.23041
 PX  C   6  -0.00000    -0.04360     0.02649     0.02011    -0.06032    -0.07045
 PY  C   6  -0.00000     0.02662     0.09311     0.17389    -0.06077     0.12266
 PZ  C   6  -0.40907    -0.00000    -0.00000    -0.00000    -0.00000    -0.00000
  
  S  C   7  -0.00000    -0.27499     0.36085     0.25492    -0.04206     0.15375
 PX  C   7   0.00000    -0.04521     0.02474    -0.01809     0.02362    -0.03718
 PY  C   7  -0.00000    -0.06411     0.01478    -0.09237     0.18127     0.17947
 PZ  C   7   0.30185     0.00000     0.00000     0.00000     0.00000     0.00000
  
  S  C   8   0.00000     0.18268    -0.28600    -0.31394     0.31382     0.26604
 PX  C   8  -0.00000    -0.02267     0.01701    -0.00695     0.03453     0.05396
 PY  C   8   0.00000     0.05465    -0.05330    -0.01020    -0.06258    -0.14058
 PZ  C   8  -0.18853    -0.00000    -0.00000    -0.00000    -0.00000    -0.00000
  
  S  H   9   0.00000     0.11676     0.17304    -0.18765    -0.21326     0.23152
  
  S  H  10   0.00000     0.08512     0.16495    -0.22196    -0.25628     0.23507
  
  S  H  11  -0.00000    -0.14268    -0.22769     0.19384     0.03331     0.15768
  
  S  H  12  -0.00000     0.18119     0.19585     0.02197     0.26233    -0.23309
  
  S  H  13   0.00000    -0.19892    -0.07100    -0.24927    -0.17463    -0.17828
  
  S  H  14  -0.00000     0.19892    -0.07100     0.24927    -0.17463     0.17828
  
  S  H  15  -0.00000    -0.18119     0.19585    -0.02197     0.26233     0.23309
  
  S  H  16   0.00000     0.14268    -0.22769    -0.19384     0.03331    -0.15768
  
  S  H  17   0.00000    -0.08512     0.16495     0.22196    -0.25628    -0.23507
  
  S  H  18   0.00000    -0.11676     0.17304     0.18765    -0.21326    -0.23152




    ROOT NO.   31          32          33          34          35          36

             5.36827     5.94759     6.34242     7.61060     7.62858     8.34620
  
  
  S  C   1  -0.16591     0.08215    -0.03054     0.00015    -0.00133    -0.00033
 PX  C   1   0.05574    -0.03276     0.00772     0.46865    -0.47611    -0.09378
 PY  C   1  -0.19373     0.16699    -0.08148     0.14775    -0.15591    -0.12392
 PZ  C   1  -0.00000     0.00000     0.00000     0.00000     0.00000     0.00000
  
  S  C   2  -0.25451     0.20900    -0.10132    -0.03827     0.03730    -0.04410
 PX  C   2  -0.16956     0.25897    -0.18555     0.00806     0.00742     0.22583
 PY  C   2   0.07766     0.01695    -0.03073    -0.00306     0.01057     0.08174
 PZ  C   2   0.00000    -0.00000    -0.00000    -0.00000    -0.00000    -0.00000
  
  S  C   3  -0.04244     0.20276    -0.15659     0.00710    -0.00356     0.07931
 PX  C   3   0.04669    -0.24277     0.25097     0.11559    -0.09138     0.29995
 PY  C   3   0.16518    -0.01269    -0.06634     0.01144    -0.02275    -0.05964
 PZ  C   3   0.00000    -0.00000    -0.00000     0.00000    -0.00000    -0.00000
  
  S  C   4   0.21204     0.08345    -0.19185    -0.01132     0.00466    -0.09538
 PX  C   4   0.15500     0.08551    -0.32721     0.06683    -0.01856     0.36977
 PY  C   4   0.07651    -0.13070     0.02184    -0.01352     0.02924     0.00952
 PZ  C   4  -0.00000     0.00000     0.00000     0.00000     0.00000     0.00000
  
  S  C   5   0.21204    -0.08345    -0.19185     0.01132     0.00466     0.09538
 PX  C   5  -0.15500     0.08551     0.32721     0.06683     0.01856     0.36977
 PY  C   5  -0.07651    -0.13070    -0.02184    -0.01352    -0.02924     0.00952
 PZ  C   5  -0.00000    -0.00000    -0.00000     0.00000    -0.00000    -0.00000
  
  S  C   6  -0.04244    -0.20276    -0.15659    -0.00710    -0.00356    -0.07931
 PX  C   6  -0.04669    -0.24277    -0.25097     0.11559     0.09138     0.29995
 PY  C   6  -0.16518    -0.01269     0.06634     0.01144     0.02275    -0.05964
 PZ  C   6   0.00000     0.00000    -0.00000    -0.00000     0.00000     0.00000
  
  S  C   7  -0.25451    -0.20900    -0.10132     0.03827     0.03730     0.04410
 PX  C   7   0.16956     0.25897     0.18555     0.00806    -0.00742     0.22583
 PY  C   7  -0.07766     0.01695     0.03073    -0.00306    -0.01057     0.08174
 PZ  C   7  -0.00000     0.00000     0.00000     0.00000     0.00000     0.00000
  
  S  C   8  -0.16591    -0.08215    -0.03054    -0.00015    -0.00133     0.00033
 PX  C   8  -0.05574    -0.03276    -0.00772     0.46865     0.47611    -0.09378
 PY  C   8   0.19373     0.16699     0.08148     0.14775     0.15591    -0.12392
 PZ  C   8   0.00000    -0.00000    -0.00000    -0.00000    -0.00000    -0.00000
  
  S  H   9   0.21644    -0.16241     0.07951    -0.31656     0.32427     0.10355
  
  S  H  10   0.15300    -0.06790     0.01568     0.35194    -0.35465    -0.03982
  
  S  H  11   0.30206    -0.30891     0.18318    -0.03332     0.02070    -0.15874
  
  S  H  12   0.04946    -0.28630     0.25332     0.09820    -0.07487     0.23303
  
  S  H  13  -0.24946    -0.11536     0.32586    -0.06208     0.01967    -0.28049
  
  S  H  14  -0.24946     0.11536     0.32586     0.06208     0.01967     0.28049
  
  S  H  15   0.04946     0.28630     0.25332    -0.09820    -0.07487    -0.23303
  
  S  H  16   0.30206     0.30891     0.18318     0.03332     0.02070     0.15874
  
  S  H  17   0.15300     0.06790     0.01568    -0.35194    -0.35465     0.03982
  
  S  H  18   0.21644     0.16241     0.07951     0.31656     0.32427    -0.10355




    ROOT NO.   37          38          39          40          41          42

             8.72314     9.01436     9.66761    10.57464    12.22391    13.98266
  
  
  S  C   1  -0.01458    -0.02773    -0.05764    -0.08935     0.09670    -0.06326
 PX  C   1   0.03467    -0.02890    -0.11009    -0.14577     0.11954    -0.06299
 PY  C   1   0.16699     0.15505     0.23326     0.33299    -0.31475     0.18570
 PZ  C   1   0.00000    -0.00000    -0.00000    -0.00000     0.00000    -0.00000
  
  S  C   2   0.09402     0.10082     0.10603     0.09358    -0.02004    -0.02240
 PX  C   2  -0.35830    -0.33710    -0.25582    -0.14234    -0.02344     0.06253
 PY  C   2  -0.08731    -0.02767     0.15090     0.33361    -0.42589     0.30028
 PZ  C   2  -0.00000    -0.00000     0.00000     0.00000    -0.00000    -0.00000
  
  S  C   3  -0.10226    -0.03713     0.08405     0.11289    -0.03292    -0.04182
 PX  C   3  -0.37758    -0.18454     0.17876     0.23367    -0.09270    -0.01021
 PY  C   3  -0.06015    -0.22009    -0.29359    -0.06880    -0.34003     0.39794
 PZ  C   3  -0.00000    -0.00000     0.00000     0.00000    -0.00000     0.00000
  
  S  C   4   0.04282    -0.09890    -0.10695     0.02804    -0.09438     0.00864
 PX  C   4  -0.10296     0.36033     0.24962    -0.10302     0.12974     0.03580
 PY  C   4   0.14689     0.15272    -0.24730    -0.30300    -0.15439     0.44296
 PZ  C   4   0.00000    -0.00000    -0.00000    -0.00000     0.00000     0.00000
  
  S  C   5   0.04282     0.09890    -0.10695    -0.02804    -0.09438    -0.00864
 PX  C   5   0.10296     0.36033    -0.24962    -0.10302    -0.12974     0.03580
 PY  C   5  -0.14689     0.15272     0.24730    -0.30300     0.15439     0.44296
 PZ  C   5  -0.00000    -0.00000     0.00000     0.00000     0.00000     0.00000
  
  S  C   6  -0.10226     0.03713     0.08405    -0.11289    -0.03292     0.04182
 PX  C   6   0.37758    -0.18454    -0.17876     0.23367     0.09270    -0.01021
 PY  C   6   0.06015    -0.22009     0.29359    -0.06880     0.34003     0.39794
 PZ  C   6   0.00000     0.00000     0.00000     0.00000     0.00000     0.00000
  
  S  C   7   0.09402    -0.10082     0.10603    -0.09358    -0.02004     0.02240
 PX  C   7   0.35830    -0.33710     0.25582    -0.14234     0.02344     0.06253
 PY  C   7   0.08731    -0.02767    -0.15090     0.33361     0.42589     0.30028
 PZ  C   7   0.00000     0.00000    -0.00000    -0.00000     0.00000     0.00000
  
  S  C   8  -0.01458     0.02773    -0.05764     0.08935     0.09670     0.06326
 PX  C   8  -0.03467    -0.02890     0.11009    -0.14577    -0.11954    -0.06299
 PY  C   8  -0.16699     0.15505    -0.23326     0.33299     0.31475     0.18570
 PZ  C   8  -0.00000     0.00000     0.00000     0.00000     0.00000    -0.00000
  
  S  H   9  -0.09029    -0.05491    -0.06520    -0.10107     0.09743    -0.05592
  
  S  H  10  -0.01060    -0.04586    -0.09067    -0.10603     0.07698    -0.03785
  
  S  H  11   0.23655     0.20863     0.14994     0.09215    -0.01412    -0.01049
  
  S  H  12  -0.25283    -0.09557     0.11532     0.11538    -0.02228    -0.02212
  
  S  H  13   0.08404    -0.21259    -0.14939     0.03188    -0.06301     0.00470
  
  S  H  14   0.08404     0.21259    -0.14939    -0.03188    -0.06301    -0.00470
  
  S  H  15  -0.25283     0.09557     0.11532    -0.11538    -0.02228     0.02212
  
  S  H  16   0.23655    -0.20863     0.14994    -0.09215    -0.01412     0.01049
  
  S  H  17  -0.01060     0.04586    -0.09067     0.10603     0.07698     0.03785
  
  S  H  18  -0.09029     0.05491    -0.06520     0.10107     0.09743     0.05592


 Reference determinate nber   1 is ALPHA 1 -  21
 SINGLE excitations FROM orbs   1 to  21 INTO orbs  22 to  42


 CI excitations=  442:        =442
 The lowest  442 spin-adapted configurations of multiplicity=  1
     sym   eV   cm**-1 -dets- dipole oscilator X FRAG ....Excitations named from first reference determinate
                       tot  #  Debye  strength

   1      0.000      0.  1  1  0.0000 0.000000 0  0 (    )->(       )
   2      4.256  34329.  1  1  0.0000 1.853507 1  1 (  21)->(  22   )
   3      5.592  45099.  1  1  0.0000 0.000000 1  1 (  21)->(  23   )
   4      6.128  49426.  1  1  0.0000 0.000000 1  1 (  20)->(  22   )
   5      6.196  49975.  1  1  0.0000 0.000013 1  1 (  21)->(  26   )
   6      6.496  52392.  1  1  0.0000 0.010154 1  1 (  21)->(  24   )
   7      6.832  55102.  1  1  0.0000 0.000000 1  1 (  21)->(  25   )
   8      6.985  56337.  1  1  0.0000 0.000000 1  1 (  21)->(  27   )
   9      7.445  60052.  1  1  0.0000 0.000907 1  1 (  21)->(  28   )
  10      7.762  62601.  1  1  0.0000 0.000138 1  1 (  18)->(  22   )
  11      7.778  62731.  1  1  0.0000 0.507726 1  1 (  20)->(  23   )
  12      7.781  62760.  1  1  0.0000 0.010307 1  1 (  19)->(  22   )
  13      7.895  63677.  1  1  0.0000 0.000000 1  1 (  21)->(  29   )
  14      8.200  66138.  1  1  0.0000 0.000087 1  1 (  15)->(  22   )
  15      8.259  66611.  1  1  0.0000 0.111345 1  1 (  21)->(  30   )
  16      8.525  68761.  1  1  0.0000 0.000000 1  1 (  20)->(  26   )
  17      8.559  69034.  1  1  0.0000 0.000000 1  1 (  20)->(  24   )
  18      8.599  69359.  1  1  0.0000 0.000000 1  1 (  16)->(  22   )
  19      8.759  70646.  1  1  0.0000 0.000000 1  1 (  21)->(  31   )
  20      8.793  70917.  1  1  0.0000 0.000000 1  1 (  17)->(  22   )
  21      8.874  71572.  1  1  0.0000 0.002703 1  1 (  20)->(  25   )
  22      9.117  73536.  1  1  0.0000 0.000024 1  1 (  20)->(  27   )
  23      9.216  74334.  1  1  0.0000 0.002976 1  1 (  21)->(  32   )
  24      9.275  74809.  1  1  0.0000 0.000000 1  1 (  21)->(  33   )
  25      9.314  75119.  1  1  0.0000 0.000000 1  1 (  19)->(  23   )
  26      9.451  76227.  1  1  0.0000 0.000400 1  1 (  14)->(  22   )
  27      9.506  76672.  1  1  0.0000 0.000000 1  1 (  18)->(  23   )
  28      9.631  77680.  1  1  0.0000 0.000000 1  1 (  20)->(  28   )
  29     10.059  81131.  1  1  0.0000 0.009980 1  1 (  20)->(  29   )
  30     10.086  81351.  1  1  0.0000 0.000000 1  1 (  13)->(  22   )
  31     10.193  82209.  1  1  0.0000 0.000000 1  1 (  15)->(  23   )
  32     10.197  82246.  1  1  0.0000 0.000029 1  1 (  16)->(  23   )
  33     10.302  83088.  1  1  0.0000 0.002219 1  1 (  17)->(  23   )
  34     10.345  83440.  1  1  0.0000 0.000000 1  1 (  19)->(  26   )
  35     10.363  83583.  1  1  0.0000 0.269685 1  1 (  19)->(  24   )
  36     10.400  83880.  1  1  0.0000 0.000000 1  1 (  20)->(  30   )
  37     10.574  85282.  1  1  0.0000 0.002253 1  1 (  18)->(  24   )
  38     10.660  85981.  1  1  0.0000 0.000000 1  1 (  19)->(  25   )
  39     10.857  87570.  1  1  0.0000 0.000000 1  1 (  18)->(  25   )
  40     10.872  87689.  1  1  0.0000 0.104090 1  1 (  20)->(  31   )
  41     10.910  87999.  1  1  0.0000 0.000000 1  1 (  14)->(  23   )
  42     10.919  88071.  1  1  0.0000 0.000000 1  1 (  19)->(  27   )
  43     11.135  89814.  1  1  0.0000 0.000000 1  1 (  15)->(  25   )
  44     11.167  90069.  1  1  0.0000 0.000000 1  1 (  16)->(  24   )
  45     11.207  90394.  1  1  0.0000 0.000000 1  1 (  17)->(  26   )
  46     11.235  90614.  1  1  0.0000 0.000136 1  1 (  21)->(  36   )
  47     11.238  90640.  1  1  0.0000 0.000000 1  1 (  12)->(  22   )
  48     11.299  91135.  1  1  0.0000 0.000738 1  1 (  15)->(  24   )
  49     11.314  91256.  1  1  0.0000 0.000069 1  1 (  21)->(  34   )
  50     11.339  91452.  1  1  0.0000 0.000000 1  1 (  17)->(  24   )
  51     11.363  91650.  1  1  0.0000 0.000000 1  1 (  21)->(  35   )
  52     11.414  92062.  1  1  0.0000 0.000000 1  1 (  20)->(  32   )
  53     11.484  92628.  1  1  0.0000 0.002966 1  1 (  19)->(  28   )
  54     11.679  94196.  1  1  0.0000 0.235588 1  1 (  17)->(  25   )
  55     11.710  94450.  1  1  0.0000 0.183752 1  1 (  18)->(  26   )
  56     11.726  94574.  1  1  0.0000 0.001673 1  1 (  20)->(  33   )
  57     11.760  94852.  1  1  0.0000 0.000000 1  1 (  21)->(  37   )
  58     11.775  94972.  1  1  0.0000 0.001354 1  1 (  13)->(  23   )
  59     11.849  95572.  1  1  0.0000 0.001963 1  1 (  16)->(  25   )
  60     11.902  95998.  1  1  0.0000 0.000000 1  1 (  19)->(  29   )
  61     11.921  96148.  1  1  0.0000 0.006613 1  1 (  21)->(  38   )
  62     12.085  97471.  1  1  0.0000 0.005273 1  1 (  14)->(  24   )
  63     12.107  97648.  1  1  0.0000 0.091178 1  1 (  15)->(  26   )
  64     12.181  98244.  1  1  0.0000 0.000749 1  1 (  17)->(  27   )
  65     12.243  98750.  1  1  0.0000 0.004173 1  1 (  19)->(  30   )
  66     12.437 100310.  1  1  0.0000 0.000000 1  1 (  16)->(  26   )
  67     12.498 100800.  1  1  0.0000 0.000000 1  1 (  18)->(  27   )
  68     12.577 101438.  1  1  0.0000 0.000000 1  1 (  21)->(  39   )
  69     12.591 101553.  1  1  0.0000 0.000000 1  1 (  17)->(  28   )
  70     12.680 102272.  1  1  0.0000 0.000000 1  1 (  14)->(  25   )
  71     12.711 102524.  1  1  0.0000 0.010116 1  1 (  12)->(  23   )
  72     12.724 102630.  1  1  0.0000 0.000000 1  1 (  19)->(  31   )
  73     12.791 103170.  1  1  0.0000 0.020661 1  1 (  11)->(  22   )
  74     12.879 103875.  1  1  0.0000 0.000000 1  1 (  13)->(  24   )
  75     12.944 104398.  1  1  0.0000 0.007278 1  1 (  18)->(  28   )
  76     12.998 104836.  1  1  0.0000 0.000000 1  1 (  15)->(  27   )
  77     13.072 105434.  1  1  0.0000 0.000592 1  1 (  17)->(  29   )
  78     13.133 105928.  1  1  0.0000 0.000000 1  1 (  20)->(  34   )
  79     13.140 105981.  1  1  0.0000 0.140503 1  1 (  16)->(  27   )
  80     13.143 106005.  1  1  0.0000 0.092964 1  1 (  19)->(  32   )
  81     13.153 106085.  1  1  0.0000 0.000341 1  1 (  20)->(  35   )
  82     13.219 106621.  1  1  0.0000 0.015235 1  1 (  14)->(  26   )
  83     13.320 107436.  1  1  0.0000 0.000000 1  1 (  18)->(  29   )
  84     13.390 107999.  1  1  0.0000 0.012687 1  1 (  13)->(  25   )
  85     13.443 108427.  1  1  0.0000 0.034213 1  1 (  15)->(  28   )
  86     13.455 108524.  1  1  0.0000 0.000000 1  1 (  17)->(  30   )
  87     13.549 109278.  1  1  0.0000 0.000000 1  1 (  16)->(  28   )
  88     13.562 109388.  1  1  0.0000 0.000000 1  1 (  19)->(  33   )
  89     13.659 110169.  1  1  0.0000 0.000000 1  1 (  20)->(  36   )
  90     13.668 110243.  1  1  0.0000 0.012024 1  1 (  21)->(  40   )
  91     13.762 110995.  1  1  0.0000 0.003587 1  1 (  18)->(  30   )
  92     13.763 111005.  1  1  0.0000 0.000000 1  1 (  12)->(  24   )
  93     13.880 111946.  1  1  0.0000 0.000000 1  1 (  14)->(  27   )
  94     13.919 112261.  1  1  0.0000 0.001713 1  1 (  17)->(  31   )
  95     13.927 112331.  1  1  0.0000 0.000000 1  1 (  15)->(  29   )
  96     13.975 112714.  1  1  0.0000 0.000000 1  1 (  13)->(  26   )
  97     13.987 112814.  1  1  0.0000 0.002156 1  1 (  16)->(  29   )
  98     14.047 113293.  1  1  0.0000 0.001376 1  1 (  20)->(  37   )
  99     14.158 114193.  1  1  0.0000 0.076930 1  1 (  17)->(  33   )
 100     14.168 114276.  1  1  0.0000 0.000000 1  1 (  18)->(  31   )
 101     14.185 114408.  1  1  0.0000 0.002010 1  1 (  10)->(  22   )
 102     14.223 114717.  1  1  0.0000 0.000000 1  1 (  20)->(  38   )
 103     14.254 114968.  1  1  0.0000 0.004442 1  1 (  15)->(  30   )
 104     14.343 115683.  1  1  0.0000 0.000000 1  1 (  17)->(  32   )
 105     14.353 115769.  1  1  0.0000 0.000000 1  1 (  16)->(  30   )
 106     14.418 116289.  1  1  0.0000 0.000000 1  1 (  11)->(  23   )
 107     14.481 116800.  1  1  0.0000 0.160820 1  1 (  14)->(  28   )
 108     14.555 117396.  1  1  0.0000 0.009561 1  1 (  12)->(  25   )
 109     14.617 117896.  1  1  0.0000 0.005655 1  1 (  18)->(  32   )
 110     14.645 118123.  1  1  0.0000 0.023268 1  1 (  13)->(  27   )
 111     14.699 118555.  1  1  0.0000 0.000000 1  1 (  18)->(  33   )
 112     14.757 119025.  1  1  0.0000 0.000000 1  1 (  15)->(  31   )
 113     14.819 119521.  1  1  0.0000 0.000000 1  1 (  14)->(  29   )
 114     14.872 119948.  1  1  0.0000 0.011175 1  1 (  16)->(  31   )
 115     14.894 120128.  1  1  0.0000 0.005211 1  1 (  20)->(  39   )
 116     15.110 121871.  1  1  0.0000 0.000000 1  1 (  12)->(  26   )
 117     15.122 121970.  1  1  0.0000 0.000000 1  1 (  13)->(  28   )
 118     15.159 122269.  1  1  0.0000 0.000655 1  1 (  19)->(  34   )
 119     15.189 122508.  1  1  0.0000 0.000000 1  1 (  19)->(  35   )
 120     15.193 122537.  1  1  0.0000 0.033931 1  1 (  14)->(  30   )
 121     15.214 122709.  1  1  0.0000 0.048624 1  1 (  15)->(  32   )
 122     15.242 122935.  1  1  0.0000 0.000000 1  1 (  15)->(  33   )
 123     15.293 123343.  1  1  0.0000 0.000000 1  1 (  21)->(  41   )
 124     15.419 124362.  1  1  0.0000 0.000000 1  1 (   9)->(  22   )
 125     15.468 124755.  1  1  0.0000 0.000000 1  1 (  16)->(  32   )
 126     15.492 124949.  1  1  0.0000 0.000146 1  1 (  19)->(  36   )
 127     15.543 125364.  1  1  0.0000 0.025995 1  1 (  11)->(  24   )
 128     15.637 126121.  1  1  0.0000 0.128240 1  1 (  13)->(  29   )
 129     15.650 126226.  1  1  0.0000 0.015825 1  1 (  12)->(  27   )
 130     15.678 126450.  1  1  0.0000 0.000000 1  1 (  19)->(  37   )
 131     15.746 126997.  1  1  0.0000 0.000000 1  1 (  20)->(  40   )
 132     15.759 127108.  1  1  0.0000 0.036918 1  1 (  16)->(  33   )
 133     15.790 127354.  1  1  0.0000 0.000000 1  1 (  14)->(  31   )
 134     15.817 127570.  1  1  0.0000 0.000000 1  1 (  10)->(  23   )
 135     15.985 128925.  1  1  0.0000 0.000000 1  1 (  13)->(  30   )
 136     16.053 129474.  1  1  0.0000 0.000053 1  1 (  19)->(  38   )
 137     16.094 129808.  1  1  0.0000 0.000000 1  1 (  11)->(  25   )
 138     16.146 130223.  1  1  0.0000 0.000000 1  1 (  17)->(  36   )
 139     16.227 130880.  1  1  0.0000 0.000000 1  1 (  12)->(  28   )
 140     16.274 131262.  1  1  0.0000 0.079739 1  1 (  14)->(  32   )
 141     16.429 132507.  1  1  0.0000 0.134787 1  1 (  13)->(  31   )
 142     16.560 133568.  1  1  0.0000 0.000000 1  1 (  14)->(  33   )
 143     16.622 134067.  1  1  0.0000 0.000123 1  1 (  11)->(  26   )
 144     16.668 134441.  1  1  0.0000 0.000486 1  1 (  21)->(  42   )
 145     16.699 134689.  1  1  0.0000 0.000000 1  1 (  19)->(  39   )
 146     16.704 134731.  1  1  0.0000 0.124283 1  1 (  12)->(  29   )
 147     16.838 135809.  1  1  0.0000 0.000000 1  1 (  17)->(  38   )
 148     16.840 135821.  1  1  0.0000 0.000021 1  1 (  17)->(  37   )
 149     16.854 135941.  1  1  0.0000 0.376469 1  1 (  18)->(  36   )
 150     16.925 136512.  1  1  0.0000 0.268100 1  1 (  18)->(  34   )
 151     16.944 136661.  1  1  0.0000 0.000000 1  1 (  17)->(  34   )
 152     16.991 137044.  1  1  0.0000 0.000000 1  1 (  18)->(  35   )
 153     16.998 137099.  1  1  0.0000 0.043151 1  1 (  10)->(  24   )
 154     17.005 137154.  1  1  0.0000 0.007102 1  1 (   9)->(  23   )
 155     17.017 137248.  1  1  0.0000 0.000000 1  1 (  13)->(  32   )
 156     17.020 137272.  1  1  0.0000 0.000349 1  1 (  17)->(  35   )
 157     17.059 137587.  1  1  0.0000 0.000000 1  1 (  12)->(  30   )
 158     17.225 138926.  1  1  0.0000 0.000000 1  1 (  11)->(  27   )
 159     17.293 139474.  1  1  0.0000 0.009327 1  1 (  13)->(  33   )
 160     17.309 139609.  1  1  0.0000 0.487563 1  1 (  15)->(  36   )
 161     17.391 140268.  1  1  0.0000 0.014160 1  1 (  20)->(  41   )
 162     17.414 140453.  1  1  0.0000 0.000000 1  1 (  10)->(  25   )
 163     17.458 140808.  1  1  0.0000 0.000000 1  1 (  16)->(  34   )
 164     17.465 140869.  1  1  0.0000 0.000000 1  1 (  18)->(  37   )
 165     17.489 141056.  1  1  0.0000 0.208317 1  1 (  16)->(  35   )
 166     17.554 141580.  1  1  0.0000 0.040886 1  1 (  12)->(  31   )
 167     17.598 141935.  1  1  0.0000 0.000106 1  1 (  17)->(  39   )
 168     17.606 142006.  1  1  0.0000 0.009060 1  1 (  19)->(  40   )
 169     17.717 142896.  1  1  0.0000 0.139360 1  1 (  15)->(  34   )
 170     17.762 143263.  1  1  0.0000 0.010652 1  1 (  15)->(  38   )
 171     17.777 143385.  1  1  0.0000 0.000000 1  1 (  15)->(  35   )
 172     17.786 143451.  1  1  0.0000 0.000000 1  1 (  16)->(  36   )
 173     17.788 143467.  1  1  0.0000 0.001652 1  1 (  11)->(  28   )
 174     17.797 143545.  1  1  0.0000 0.010049 1  1 (  18)->(  38   )
 175     17.847 143943.  1  1  0.0000 0.000000 1  1 (  15)->(  37   )
 176     17.992 145119.  1  1  0.0000 0.000000 1  1 (  12)->(  32   )
 177     18.009 145252.  1  1  0.0000 0.000000 1  1 (  18)->(  39   )
 178     18.078 145806.  1  1  0.0000 0.000000 1  1 (   8)->(  22   )
 179     18.079 145820.  1  1  0.0000 0.001805 1  1 (  10)->(  26   )
 180     18.116 146119.  1  1  0.0000 0.000000 1  1 (   9)->(  24   )
 181     18.210 146871.  1  1  0.0000 0.138970 1  1 (  14)->(  34   )
 182     18.235 147072.  1  1  0.0000 0.000000 1  1 (  14)->(  35   )
 183     18.257 147257.  1  1  0.0000 0.000000 1  1 (  11)->(  29   )
 184     18.271 147366.  1  1  0.0000 0.009624 1  1 (   7)->(  22   )
 185     18.278 147426.  1  1  0.0000 0.362122 1  1 (  16)->(  37   )
 186     18.411 148494.  1  1  0.0000 0.015345 1  1 (  12)->(  33   )
 187     18.428 148630.  1  1  0.0000 0.000000 1  1 (  16)->(  38   )
 188     18.525 149415.  1  1  0.0000 0.066590 1  1 (  14)->(  36   )
 189     18.611 150111.  1  1  0.0000 0.000201 1  1 (   9)->(  25   )
 190     18.643 150362.  1  1  0.0000 0.239480 1  1 (  11)->(  30   )
 191     18.744 151177.  1  1  0.0000 0.000000 1  1 (  10)->(  27   )
 192     18.845 151998.  1  1  0.0000 0.000000 1  1 (  17)->(  40   )
 193     18.862 152135.  1  1  0.0000 0.000000 1  1 (  14)->(  37   )
 194     18.929 152673.  1  1  0.0000 0.014235 1  1 (  16)->(  39   )
 195     18.975 153047.  1  1  0.0000 0.000000 1  1 (  13)->(  34   )
 196     19.012 153342.  1  1  0.0000 0.185242 1  1 (  13)->(  35   )
 197     19.024 153438.  1  1  0.0000 0.000000 1  1 (  15)->(  39   )
 198     19.117 154186.  1  1  0.0000 0.000000 1  1 (  19)->(  41   )
 199     19.118 154201.  1  1  0.0000 0.000000 1  1 (  20)->(  42   )
 200     19.149 154446.  1  1  0.0000 0.000000 1  1 (  11)->(  31   )
 201     19.159 154532.  1  1  0.0000 0.000000 1  1 (   9)->(  26   )
 202     19.251 155269.  1  1  0.0000 0.000761 1  1 (  10)->(  28   )
 203     19.280 155501.  1  1  0.0000 0.175206 1  1 (  14)->(  38   )
 204     19.290 155588.  1  1  0.0000 0.000000 1  1 (  13)->(  36   )
 205     19.310 155744.  1  1  0.0000 0.015820 1  1 (  18)->(  40   )
 206     19.623 158269.  1  1  0.0000 0.070087 1  1 (  13)->(  37   )
 207     19.718 159038.  1  1  0.0000 0.010852 1  1 (  11)->(  32   )
 208     19.749 159284.  1  1  0.0000 0.000000 1  1 (  10)->(  29   )
 209     19.760 159376.  1  1  0.0000 0.278048 1  1 (   8)->(  23   )
 210     19.763 159400.  1  1  0.0000 0.000000 1  1 (  12)->(  34   )
 211     19.777 159511.  1  1  0.0000 0.137240 1  1 (  12)->(  35   )
 212     19.793 159638.  1  1  0.0000 0.000000 1  1 (  13)->(  38   )
 213     19.820 159863.  1  1  0.0000 0.000000 1  1 (  14)->(  39   )
 214     19.843 160043.  1  1  0.0000 0.000000 1  1 (  16)->(  40   )
 215     19.856 160149.  1  1  0.0000 0.000000 1  1 (   6)->(  22   )
 216     19.863 160209.  1  1  0.0000 0.001340 1  1 (   9)->(  27   )
 217     19.882 160363.  1  1  0.0000 0.027170 1  1 (  15)->(  40   )
 218     19.900 160507.  1  1  0.0000 0.000000 1  1 (   7)->(  23   )
 219     19.996 161276.  1  1  0.0000 0.000000 1  1 (  11)->(  33   )
 220     20.126 162329.  1  1  0.0000 0.049712 1  1 (  10)->(  30   )
 221     20.314 163847.  1  1  0.0000 0.000000 1  1 (  12)->(  36   )
 222     20.448 164921.  1  1  0.0000 0.000000 1  1 (   9)->(  28   )
 223     20.493 165290.  1  1  0.0000 0.006122 1  1 (  17)->(  41   )
 224     20.582 166004.  1  1  0.0000 0.000000 1  1 (  10)->(  31   )
 225     20.644 166506.  1  1  0.0000 0.080149 1  1 (  12)->(  37   )
 226     20.668 166702.  1  1  0.0000 0.096243 1  1 (  13)->(  39   )
 227     20.843 168107.  1  1  0.0000 0.005618 1  1 (   9)->(  29   )
 228     20.851 168174.  1  1  0.0000 0.000000 1  1 (   8)->(  24   )
 229     20.860 168247.  1  1  0.0000 0.267827 1  1 (  14)->(  40   )
 230     20.879 168403.  1  1  0.0000 0.142326 1  1 (   7)->(  24   )
 231     20.923 168758.  1  1  0.0000 0.006988 1  1 (  19)->(  42   )
 232     20.977 169195.  1  1  0.0000 0.000000 1  1 (  12)->(  38   )
 233     21.070 169943.  1  1  0.0000 0.000000 1  1 (  18)->(  41   )
 234     21.097 170162.  1  1  0.0000 0.083775 1  1 (  10)->(  32   )
 235     21.224 171186.  1  1  0.0000 0.000000 1  1 (  10)->(  33   )
 236     21.268 171537.  1  1  0.0000 0.000000 1  1 (   9)->(  30   )
 237     21.350 172201.  1  1  0.0000 0.000111 1  1 (   8)->(  25   )
 238     21.370 172362.  1  1  0.0000 0.335766 1  1 (  16)->(  41   )
 239     21.482 173262.  1  1  0.0000 0.000000 1  1 (   7)->(  25   )
 240     21.507 173469.  1  1  0.0000 0.000000 1  1 (  13)->(  40   )
 241     21.568 173954.  1  1  0.0000 0.000000 1  1 (  17)->(  42   )
 242     21.593 174157.  1  1  0.0000 0.000000 1  1 (  15)->(  41   )
 243     21.690 174945.  1  1  0.0000 0.136908 1  1 (  12)->(  39   )
 244     21.702 175036.  1  1  0.0000 0.045158 1  1 (  11)->(  34   )
 245     21.716 175150.  1  1  0.0000 0.003333 1  1 (   6)->(  23   )
 246     21.740 175343.  1  1  0.0000 0.000000 1  1 (  11)->(  35   )
 247     21.870 176391.  1  1  0.0000 0.220103 1  1 (   9)->(  31   )
 248     21.898 176622.  1  1  0.0000 0.049429 1  1 (  11)->(  36   )
 249     21.944 176987.  1  1  0.0000 0.000494 1  1 (   7)->(  26   )
 250     21.953 177063.  1  1  0.0000 0.000000 1  1 (   8)->(  26   )
 251     22.044 177800.  1  1  0.0000 0.362588 1  1 (   5)->(  22   )
 252     22.314 179976.  1  1  0.0000 0.000000 1  1 (   9)->(  32   )
 253     22.316 179988.  1  1  0.0000 0.000000 1  1 (  14)->(  41   )
 254     22.361 180353.  1  1  0.0000 0.000000 1  1 (  11)->(  37   )
 255     22.555 181917.  1  1  0.0000 0.032315 1  1 (  11)->(  38   )
 256     22.564 181992.  1  1  0.0000 0.003683 1  1 (   9)->(  33   )
 257     22.574 182070.  1  1  0.0000 0.004877 1  1 (   8)->(  27   )
 258     22.654 182714.  1  1  0.0000 0.382600 1  1 (  18)->(  42   )
 259     22.657 182742.  1  1  0.0000 0.000000 1  1 (   7)->(  27   )
 260     22.688 182989.  1  1  0.0000 0.216873 1  1 (  15)->(  42   )
 261     22.786 183784.  1  1  0.0000 0.000000 1  1 (   6)->(  24   )
 262     22.868 184443.  1  1  0.0000 0.153208 1  1 (   6)->(  25   )
 263     22.874 184494.  1  1  0.0000 0.000000 1  1 (  12)->(  40   )
 264     22.936 184991.  1  1  0.0000 0.100113 1  1 (  10)->(  34   )
 265     22.961 185194.  1  1  0.0000 0.000000 1  1 (  10)->(  35   )
 266     23.029 185741.  1  1  0.0000 0.000000 1  1 (   8)->(  28   )
 267     23.084 186187.  1  1  0.0000 0.000000 1  1 (  16)->(  42   )
 268     23.160 186801.  1  1  0.0000 0.000000 1  1 (  11)->(  39   )
 269     23.170 186881.  1  1  0.0000 0.000540 1  1 (   7)->(  28   )
 270     23.176 186927.  1  1  0.0000 0.160653 1  1 (  13)->(  41   )
 271     23.341 188261.  1  1  0.0000 0.028213 1  1 (  10)->(  36   )
 272     23.499 189535.  1  1  0.0000 0.005335 1  1 (   8)->(  29   )
 273     23.504 189569.  1  1  0.0000 0.000000 1  1 (   6)->(  26   )
 274     23.645 190708.  1  1  0.0000 0.000000 1  1 (   5)->(  23   )
 275     23.650 190753.  1  1  0.0000 0.000000 1  1 (   7)->(  29   )
 276     23.778 191784.  1  1  0.0000 0.000000 1  1 (  10)->(  37   )
 277     23.885 192647.  1  1  0.0000 0.000000 1  1 (   8)->(  30   )
 278     23.983 193438.  1  1  0.0000 0.063744 1  1 (  10)->(  38   )
 279     24.015 193693.  1  1  0.0000 0.092291 1  1 (  11)->(  40   )
 280     24.042 193912.  1  1  0.0000 0.026884 1  1 (  14)->(  42   )
 281     24.049 193967.  1  1  0.0000 0.002648 1  1 (   7)->(  30   )
 282     24.415 196924.  1  1  0.0000 0.001273 1  1 (   6)->(  27   )
 283     24.439 197116.  1  1  0.0000 0.000000 1  1 (   9)->(  34   )
 284     24.457 197261.  1  1  0.0000 0.004435 1  1 (   8)->(  31   )
 285     24.477 197422.  1  1  0.0000 0.026595 1  1 (   9)->(  35   )
 286     24.521 197772.  1  1  0.0000 0.091952 1  1 (  12)->(  41   )
 287     24.551 198016.  1  1  0.0000 0.000000 1  1 (   9)->(  36   )
 288     24.611 198500.  1  1  0.0000 0.000000 1  1 (   7)->(  31   )
 289     24.670 198981.  1  1  0.0000 0.000000 1  1 (  10)->(  39   )
 290     24.739 199537.  1  1  0.0000 0.012637 1  1 (   5)->(  24   )
 291     24.813 200134.  1  1  0.0000 0.000000 1  1 (  13)->(  42   )
 292     24.814 200138.  1  1  0.0000 0.000000 1  1 (   8)->(  32   )
 293     24.891 200763.  1  1  0.0000 0.000000 1  1 (   6)->(  28   )
 294     24.952 201252.  1  1  0.0000 0.047256 1  1 (   9)->(  37   )
 295     25.100 202449.  1  1  0.0000 0.010720 1  1 (   8)->(  33   )
 296     25.173 203036.  1  1  0.0000 0.000000 1  1 (   9)->(  38   )
 297     25.232 203514.  1  1  0.0000 0.000000 1  1 (   5)->(  25   )
 298     25.281 203906.  1  1  0.0000 0.124108 1  1 (   7)->(  32   )
 299     25.393 204813.  1  1  0.0000 0.000641 1  1 (   6)->(  29   )
 300     25.442 205206.  1  1  0.0000 0.000000 1  1 (   7)->(  33   )
 301     25.696 207251.  1  1  0.0000 0.000000 1  1 (  11)->(  41   )
 302     25.801 208100.  1  1  0.0000 0.000000 1  1 (   6)->(  30   )
 303     25.807 208145.  1  1  0.0000 0.001696 1  1 (   9)->(  39   )
 304     25.918 209046.  1  1  0.0000 0.000690 1  1 (   5)->(  26   )
 305     25.981 209555.  1  1  0.0000 0.000000 1  1 (  12)->(  42   )
 306     26.008 209769.  1  1  0.0000 0.043635 1  1 (  10)->(  40   )
 307     26.357 212583.  1  1  0.0000 0.000147 1  1 (   6)->(  31   )
 308     26.511 213825.  1  1  0.0000 0.000000 1  1 (   5)->(  27   )
 309     26.569 214296.  1  1  0.0000 0.000000 1  1 (   9)->(  40   )
 310     26.693 215297.  1  1  0.0000 0.000000 1  1 (   4)->(  22   )
 311     26.752 215773.  1  1  0.0000 0.000000 1  1 (   8)->(  34   )
 312     26.789 216068.  1  1  0.0000 0.060200 1  1 (   8)->(  35   )
 313     26.915 217086.  1  1  0.0000 0.000000 1  1 (   6)->(  32   )
 314     26.975 217565.  1  1  0.0000 0.013601 1  1 (   5)->(  28   )
 315     27.030 218014.  1  1  0.0000 0.130669 1  1 (   6)->(  33   )
 316     27.063 218278.  1  1  0.0000 0.000000 1  1 (   8)->(  36   )
 317     27.140 218895.  1  1  0.0000 0.028500 1  1 (   7)->(  34   )
 318     27.172 219158.  1  1  0.0000 0.000000 1  1 (   7)->(  35   )
 319     27.291 220118.  1  1  0.0000 0.003422 1  1 (   7)->(  36   )
 320     27.349 220587.  1  1  0.0000 0.000000 1  1 (   5)->(  29   )
 321     27.373 220777.  1  1  0.0000 0.008588 1  1 (  11)->(  42   )
 322     27.408 221058.  1  1  0.0000 0.000000 1  1 (  10)->(  41   )
 323     27.492 221741.  1  1  0.0000 0.040701 1  1 (   8)->(  37   )
 324     27.673 223201.  1  1  0.0000 0.000000 1  1 (   7)->(  37   )
 325     27.775 224021.  1  1  0.0000 0.000000 1  1 (   8)->(  38   )
 326     27.875 224831.  1  1  0.0000 0.009671 1  1 (   5)->(  30   )
 327     27.881 224880.  1  1  0.0000 0.002383 1  1 (   7)->(  38   )
 328     28.224 227644.  1  1  0.0000 0.000000 1  1 (   5)->(  31   )
 329     28.328 228477.  1  1  0.0000 0.012805 1  1 (   4)->(  23   )
 330     28.383 228927.  1  1  0.0000 0.003954 1  1 (   9)->(  41   )
 331     28.500 229868.  1  1  0.0000 0.000000 1  1 (   7)->(  39   )
 332     28.524 230060.  1  1  0.0000 0.050644 1  1 (   8)->(  39   )
 333     28.680 231323.  1  1  0.0000 0.000472 1  1 (   5)->(  32   )
 334     28.878 232917.  1  1  0.0000 0.000000 1  1 (   6)->(  36   )
 335     28.882 232950.  1  1  0.0000 0.000000 1  1 (   5)->(  33   )
 336     29.081 234557.  1  1  0.0000 0.006645 1  1 (  10)->(  42   )
 337     29.142 235049.  1  1  0.0000 0.000000 1  1 (   6)->(  34   )
 338     29.192 235453.  1  1  0.0000 0.014176 1  1 (   6)->(  35   )
 339     29.376 236933.  1  1  0.0000 0.000000 1  1 (   8)->(  40   )
 340     29.376 236936.  1  1  0.0000 0.000961 1  1 (   6)->(  37   )
 341     29.415 237247.  1  1  0.0000 0.000000 1  1 (   4)->(  24   )
 342     29.424 237322.  1  1  0.0000 0.021506 1  1 (   7)->(  40   )
 343     29.429 237364.  1  1  0.0000 0.000000 1  1 (   6)->(  38   )
 344     29.855 240798.  1  1  0.0000 0.001075 1  1 (   4)->(  25   )
 345     30.006 242014.  1  1  0.0000 0.000000 1  1 (   9)->(  42   )
 346     30.091 242704.  1  1  0.0000 0.002433 1  1 (   6)->(  39   )
 347     30.471 245765.  1  1  0.0000 0.000000 1  1 (   4)->(  26   )
 348     30.492 245939.  1  1  0.0000 0.007881 1  1 (   3)->(  22   )
 349     30.757 248075.  1  1  0.0000 0.023658 1  1 (   5)->(  34   )
 350     30.794 248373.  1  1  0.0000 0.000000 1  1 (   5)->(  35   )
 351     30.959 249703.  1  1  0.0000 0.000000 1  1 (   7)->(  41   )
 352     31.013 250137.  1  1  0.0000 0.006890 1  1 (   5)->(  36   )
 353     31.114 250952.  1  1  0.0000 0.002257 1  1 (   4)->(  27   )
 354     31.151 251249.  1  1  0.0000 0.032794 1  1 (   8)->(  41   )
 355     31.195 251609.  1  1  0.0000 0.000000 1  1 (   6)->(  40   )
 356     31.461 253753.  1  1  0.0000 0.000000 1  1 (   5)->(  37   )
 357     31.575 254670.  1  1  0.0000 0.000000 1  1 (   4)->(  28   )
 358     31.737 255980.  1  1  0.0000 0.072481 1  1 (   5)->(  38   )
 359     32.107 258964.  1  1  0.0000 0.017182 1  1 (   4)->(  29   )
 360     32.151 259312.  1  1  0.0000 0.000000 1  1 (   3)->(  23   )
 361     32.192 259645.  1  1  0.0000 0.000000 1  1 (   5)->(  39   )
 362     32.285 260401.  1  1  0.0000 0.000000 1  1 (   4)->(  30   )
 363     32.638 263243.  1  1  0.0000 0.001763 1  1 (   7)->(  42   )
 364     32.831 264797.  1  1  0.0000 0.000000 1  1 (   8)->(  42   )
 365     32.836 264839.  1  1  0.0000 0.001645 1  1 (   6)->(  41   )
 366     32.841 264880.  1  1  0.0000 0.001492 1  1 (   4)->(  31   )
 367     33.220 267935.  1  1  0.0000 0.003015 1  1 (   3)->(  24   )
 368     33.294 268536.  1  1  0.0000 0.000000 1  1 (   4)->(  32   )
 369     33.412 269483.  1  1  0.0000 0.026723 1  1 (   5)->(  40   )
 370     33.479 270024.  1  1  0.0000 0.000010 1  1 (   4)->(  33   )
 371     33.583 270865.  1  1  0.0000 0.000000 1  1 (   2)->(  22   )
 372     33.709 271885.  1  1  0.0000 0.000000 1  1 (   3)->(  25   )
 373     34.055 274669.  1  1  0.0000 0.000000 1  1 (   6)->(  42   )
 374     34.281 276492.  1  1  0.0000 0.000661 1  1 (   3)->(  26   )
 375     34.893 281431.  1  1  0.0000 0.000000 1  1 (   3)->(  27   )
 376     35.122 283282.  1  1  0.0000 0.000000 1  1 (   5)->(  41   )
 377     35.213 284012.  1  1  0.0000 0.001791 1  1 (   2)->(  23   )
 378     35.376 285327.  1  1  0.0000 0.000082 1  1 (   1)->(  22   )
 379     35.417 285662.  1  1  0.0000 0.000000 1  1 (   4)->(  34   )
 380     35.459 285996.  1  1  0.0000 0.011515 1  1 (   4)->(  35   )
 381     35.481 286174.  1  1  0.0000 0.013919 1  1 (   3)->(  28   )
 382     35.574 286928.  1  1  0.0000 0.000000 1  1 (   4)->(  36   )
 383     35.760 288427.  1  1  0.0000 0.000000 1  1 (   3)->(  29   )
 384     36.024 290555.  1  1  0.0000 0.007896 1  1 (   4)->(  37   )
 385     36.118 291314.  1  1  0.0000 0.010121 1  1 (   3)->(  30   )
 386     36.137 291462.  1  1  0.0000 0.000000 1  1 (   4)->(  38   )
 387     36.264 292488.  1  1  0.0000 0.000000 1  1 (   2)->(  24   )
 388     36.582 295054.  1  1  0.0000 0.000000 1  1 (   3)->(  31   )
 389     36.797 296786.  1  1  0.0000 0.000451 1  1 (   2)->(  25   )
 390     36.815 296932.  1  1  0.0000 0.002842 1  1 (   5)->(  42   )
 391     37.096 299202.  1  1  0.0000 0.001016 1  1 (   3)->(  32   )
 392     37.161 299725.  1  1  0.0000 0.078797 1  1 (   4)->(  39   )
 393     37.224 300232.  1  1  0.0000 0.000000 1  1 (   1)->(  23   )
 394     37.326 301054.  1  1  0.0000 0.000000 1  1 (   3)->(  33   )
 395     37.338 301153.  1  1  0.0000 0.000000 1  1 (   2)->(  26   )
 396     38.033 306759.  1  1  0.0000 0.026154 1  1 (   2)->(  27   )
 397     38.164 307812.  1  1  0.0000 0.000000 1  1 (   4)->(  40   )
 398     38.301 308920.  1  1  0.0000 0.000329 1  1 (   1)->(  24   )
 399     38.399 309711.  1  1  0.0000 0.000000 1  1 (   1)->(  25   )
 400     38.410 309800.  1  1  0.0000 0.000000 1  1 (   2)->(  28   )
 401     38.856 313392.  1  1  0.0000 0.003721 1  1 (   2)->(  29   )
 402     39.095 315322.  1  1  0.0000 0.034760 1  1 (   1)->(  26   )
 403     39.123 315547.  1  1  0.0000 0.008428 1  1 (   3)->(  34   )
 404     39.158 315827.  1  1  0.0000 0.000000 1  1 (   3)->(  35   )
 405     39.216 316297.  1  1  0.0000 0.000000 1  1 (   2)->(  30   )
 406     39.426 317992.  1  1  0.0000 0.002400 1  1 (   3)->(  36   )
 407     39.695 320165.  1  1  0.0000 0.005095 1  1 (   2)->(  31   )
 408     39.799 320998.  1  1  0.0000 0.000000 1  1 (   3)->(  37   )
 409     39.829 321242.  1  1  0.0000 0.002858 1  1 (   4)->(  41   )
 410     39.913 321917.  1  1  0.0000 0.000000 1  1 (   1)->(  27   )
 411     40.133 323694.  1  1  0.0000 0.000000 1  1 (   2)->(  32   )
 412     40.213 324343.  1  1  0.0000 0.020833 1  1 (   3)->(  38   )
 413     40.343 325390.  1  1  0.0000 0.001077 1  1 (   1)->(  28   )
 414     40.420 326009.  1  1  0.0000 0.001141 1  1 (   2)->(  33   )
 415     40.808 329136.  1  1  0.0000 0.000000 1  1 (   1)->(  29   )
 416     40.862 329578.  1  1  0.0000 0.000000 1  1 (   3)->(  39   )
 417     41.194 332253.  1  1  0.0000 0.001447 1  1 (   1)->(  30   )
 418     41.454 334347.  1  1  0.0000 0.000000 1  1 (   4)->(  42   )
 419     41.661 336021.  1  1  0.0000 0.000000 1  1 (   1)->(  31   )
 420     41.916 338079.  1  1  0.0000 0.090270 1  1 (   3)->(  40   )
 421     41.993 338699.  1  1  0.0000 0.000000 1  1 (   1)->(  33   )
 422     42.085 339441.  1  1  0.0000 0.001718 1  1 (   1)->(  32   )
 423     42.212 340464.  1  1  0.0000 0.000000 1  1 (   2)->(  34   )
 424     42.246 340737.  1  1  0.0000 0.008634 1  1 (   2)->(  35   )
 425     42.504 342820.  1  1  0.0000 0.000000 1  1 (   2)->(  36   )
 426     43.025 347017.  1  1  0.0000 0.024721 1  1 (   2)->(  37   )
 427     43.189 348344.  1  1  0.0000 0.000000 1  1 (   2)->(  38   )
 428     43.574 351445.  1  1  0.0000 0.000000 1  1 (   3)->(  41   )
 429     43.904 354113.  1  1  0.0000 0.000968 1  1 (   2)->(  39   )
 430     44.265 357019.  1  1  0.0000 0.033589 1  1 (   1)->(  36   )
 431     44.550 359324.  1  1  0.0000 0.007983 1  1 (   1)->(  34   )
 432     44.604 359758.  1  1  0.0000 0.000000 1  1 (   1)->(  35   )
 433     44.806 361387.  1  1  0.0000 0.000000 1  1 (   1)->(  37   )
 434     44.891 362068.  1  1  0.0000 0.000087 1  1 (   1)->(  38   )
 435     44.924 362337.  1  1  0.0000 0.000000 1  1 (   2)->(  40   )
 436     45.182 364421.  1  1  0.0000 0.000325 1  1 (   3)->(  42   )
 437     45.679 368427.  1  1  0.0000 0.000000 1  1 (   1)->(  39   )
 438     46.526 375257.  1  1  0.0000 0.113450 1  1 (   2)->(  41   )
 439     46.830 377708.  1  1  0.0000 0.000429 1  1 (   1)->(  40   )
 440     48.170 388521.  1  1  0.0000 0.000000 1  1 (   2)->(  42   )
 441     48.479 391010.  1  1  0.0000 0.000000 1  1 (   1)->(  41   )
 442     49.712 400952.  1  1  0.0000 0.120668 1  1 (   1)->(  42   )

 Depression of ground-state after CI=          0. cm**-1 Energy= -4434.9707674 eV
 Dipole moment=  0.000000 -0.000000 -0.000000 tot=  0.000000 Debyes


  CI trans.  energy frequency wavelength oscillator--------- polarization---------  dipole  ------ components-----
 st.  symm.    eV      cm - 1       nm      strength       x          y         z       moment     x       y       z 

   2      3.8414142    30983.    322.76  1.698903   0.111816  -0.993729   0.000000  0.000000  -0.000  -0.000  -0.000
   3      5.1296557    41374.    241.70  0.000000                                   0.000000  -0.000  -0.000   0.000
   4      5.6760820    45781.    218.43  0.000000                                   0.000000  -0.000  -0.000  -0.000
   5      5.7974589    46760.    213.86  0.000001  -0.000000   0.000000   1.000000  0.000000  -0.000  -0.000  -0.000
   6      5.9566184    48043.    208.14  0.039427   0.150154  -0.988663   0.000000  0.000000  -0.000  -0.000   0.000
   7      6.3064737    50865.    196.60  0.000000                                   0.000000  -0.000  -0.000  -0.000
   8      6.3102185    50895.    196.48  0.000000                                   0.000000   0.000   0.000   0.000
   9      6.7828544    54708.    182.79  0.009136  -0.000000  -0.000000  -1.000000  0.000000  -0.000  -0.000  -0.000
  10      6.9748538    56256.    177.76  0.168153   0.471649  -0.881787  -0.000000  0.000000   0.000  -0.000  -0.000
  11      7.1945131    58028.    172.33  0.000000                                   0.000000   0.000  -0.000   0.000
  12      7.2359524    58362.    171.34  0.000016  -0.000000   0.000000  -1.000000  0.000000  -0.000  -0.000   0.000
  13      7.5532754    60921.    164.15  0.150069   0.000000   0.000000   1.000000  0.000000  -0.000  -0.000   0.000
  14      7.5896770    61215.    163.36  0.003674  -0.000000  -0.000000   1.000000  0.000000   0.000  -0.000   0.000
  15      7.6225658    61480.    162.65  0.092907   0.852252  -0.523131  -0.000000  0.000000  -0.000  -0.000   0.000
  16      7.6328306    61563.    162.43  0.000000                                   0.000000  -0.000  -0.000  -0.000
  17      7.9065914    63771.    156.81  0.000000                                   0.000000  -0.000  -0.000  -0.000
  18      8.0044519    64560.    154.89  0.000000                                   0.000000   0.000  -0.000  -0.000
  19      8.2039857    66170.    151.13  0.000661  -0.000000   0.000000   1.000000  0.000000   0.000  -0.000   0.000
  20      8.3302581    67188.    148.84  0.000000                                   0.000000   0.000  -0.000  -0.000
  21      8.3468995    67322.    148.54  0.000000                                   0.000000  -0.000  -0.000   0.000
  22      8.3583616    67415.    148.34  0.054119  -0.643618   0.765347   0.000000  0.000000   0.000   0.000  -0.000
  23      8.4082993    67818.    147.45  0.000000                                   0.000000  -0.000  -0.000   0.000
  24      8.4483051    68140.    146.76  0.008877  -0.000000   0.000000  -1.000000  0.000000   0.000  -0.000  -0.000
  25      8.7353994    70456.    141.93  0.000000                                   0.000000   0.000  -0.000   0.000
  26      8.8249695    71178.    140.49  0.000000                                   0.000000   0.000  -0.000  -0.000
  27      8.9394557    72102.    138.69  0.000001  -0.000000   0.000000  -1.000000  0.000000  -0.000  -0.000  -0.000
  28      9.2185052    74352.    134.49  0.000000                                   0.000000  -0.000  -0.000  -0.000
  29      9.2965166    74982.    133.37  0.000000                                   0.000000  -0.000  -0.000  -0.000
  30      9.4320179    76075.    131.45  0.003187   0.000000  -0.000000  -1.000000  0.000000   0.000  -0.000   0.000
  31      9.6365664    77724.    128.66  0.000000                                   0.000000  -0.000  -0.000  -0.000
  32      9.6887379    78145.    127.97  0.087626  -0.840192   0.542289  -0.000000  0.000000  -0.000  -0.000   0.000
  33      9.8026324    79064.    126.48  0.020327   0.000000  -0.000000   1.000000  0.000000   0.000   0.000   0.000
  34      9.9377657    80154.    124.76  0.000000                                   0.000000  -0.000  -0.000   0.000
  35      9.9807022    80500.    124.22  0.000397   0.000000   0.000000   1.000000  0.000000   0.000  -0.000   0.000
  36      9.9987999    80646.    124.00  0.000000                                   0.000000  -0.000   0.000   0.000
  37     10.0822103    81319.    122.97  0.000014   0.000000   0.000000   1.000000  0.000000   0.000  -0.000   0.000
  38     10.1546307    81903.    122.10  0.000000                                   0.000000  -0.000  -0.000  -0.000
  39     10.2129180    82373.    121.40  0.039220  -0.895481   0.445100   0.000000  0.000000   0.000   0.000   0.000
  40     10.2183860    82417.    121.33  0.000638  -0.000000   0.000000  -1.000000  0.000000  -0.000  -0.000   0.000
  41     10.2494519    82668.    120.97  0.000000                                   0.000000   0.000  -0.000  -0.000
  42     10.5294247    84926.    117.75  0.001032   0.000000  -0.000000  -1.000000  0.000000  -0.000  -0.000  -0.000
  43     10.6266729    85710.    116.67  0.000000                                   0.000000   0.000   0.000  -0.000
  44     10.6974574    86281.    115.90  0.027135  -0.000000  -0.000000   1.000000  0.000000  -0.000  -0.000  -0.000
  45     10.7398200    86623.    115.44  0.000000                                   0.000000   0.000   0.000   0.000
  46     10.7887303    87017.    114.92  0.000000                                   0.000000  -0.000   0.000  -0.000
  47     10.8687319    87662.    114.07  0.000160   0.000000  -0.000000  -1.000000  0.000000   0.000   0.000   0.000
  48     11.1303270    89772.    111.39  0.000000                                   0.000000  -0.000  -0.000  -0.000
  49     11.1387027    89840.    111.31  0.000006   0.000000  -0.000000   1.000000  0.000000   0.000   0.000  -0.000
  50     11.2012413    90344.    110.69  0.000000                                   0.000000   0.000  -0.000   0.000
  51     11.2915474    91073.    109.80  0.001185   0.000000   0.000000   1.000000  0.000000   0.000   0.000  -0.000
  52     11.3138285    91252.    109.59  0.195589   0.694346   0.719641   0.000000  0.000000  -0.000  -0.000  -0.000
  53     11.4044966    91984.    108.71  0.012148  -0.000000   0.000000   1.000000  0.000000  -0.000  -0.000  -0.000
  54     11.5677075    93300.    107.18  0.000000                                   0.000000  -0.000  -0.000   0.000
  55     11.6373300    93862.    106.54  0.012415   0.000000  -0.000000  -1.000000  0.000000  -0.000  -0.000  -0.000
  56     11.6727692    94147.    106.22  0.000000                                   0.000000  -0.000  -0.000  -0.000
  57     11.7215577    94541.    105.77  0.000000                                   0.000000  -0.000  -0.000  -0.000
  58     11.7238362    94559.    105.75  0.069761   0.244888  -0.969551   0.000000  0.000000  -0.000  -0.000   0.000
  59     11.7734804    94960.    105.31  0.000000                                   0.000000   0.000   0.000   0.000
  60     11.8107306    95260.    104.98  0.000000                                   0.000000  -0.000  -0.000   0.000
  61     11.8855458    95864.    104.31  0.014461   0.483324  -0.875442   0.000000  0.000000   0.000   0.000   0.000
  62     12.0544047    97226.    102.85  0.258729  -0.817222   0.576323   0.000000  0.000000   0.000   0.000   0.000
  63     12.0562864    97241.    102.84  0.000000                                   0.000000  -0.000  -0.000  -0.000
  64     12.1147115    97712.    102.34  0.000000                                   0.000000   0.000  -0.000   0.000
  65     12.1306903    97841.    102.21  0.000000                                   0.000000   0.000  -0.000  -0.000
  66     12.1616185    98090.    101.95  0.004266   0.000000  -0.000000  -1.000000  0.000000  -0.000   0.000   0.000
  67     12.1930378    98344.    101.68  0.012758   0.000000  -0.000000   1.000000  0.000000   0.000   0.000  -0.000
  68     12.3716804    99785.    100.22  0.000000                                   0.000000  -0.000  -0.000  -0.000
  69     12.5414945   101154.     98.86  0.009023   0.000000   0.000000  -1.000000  0.000000  -0.000  -0.000   0.000
  70     12.5485502   101211.     98.80  0.017726   0.159013   0.987276   0.000000  0.000000   0.000  -0.000  -0.000
  71     12.6101702   101708.     98.32  0.000000                                   0.000000   0.000  -0.000  -0.000
  72     12.7202608   102596.     97.47  0.006342  -0.000000   0.000000   1.000000  0.000000  -0.000  -0.000   0.000
  73     12.7773400   103056.     97.03  0.000000                                   0.000000   0.000  -0.000  -0.000
  74     12.7964544   103211.     96.89  0.027350  -0.602234   0.798320   0.000000  0.000000  -0.000  -0.000  -0.000
  75     12.8277514   103463.     96.65  0.003141   0.000000   0.000000  -1.000000  0.000000  -0.000   0.000  -0.000
  76     12.8336748   103511.     96.61  0.000000                                   0.000000   0.000   0.000   0.000
  77     12.9839809   104723.     95.49  0.005991   0.938591  -0.345032  -0.000000  0.000000  -0.000  -0.000  -0.000
  78     13.0081546   104918.     95.31  0.000000                                   0.000000   0.000  -0.000  -0.000
  79     13.0154844   104977.     95.26  0.008299   0.000000  -0.000000   1.000000  0.000000   0.000  -0.000  -0.000
  80     13.0883031   105565.     94.73  0.000000                                   0.000000  -0.000  -0.000  -0.000
  81     13.1475170   106042.     94.30  0.018596   0.000000   0.000000  -1.000000  0.000000   0.000   0.000   0.000
  82     13.2301621   106709.     93.71  0.019784   0.000000   0.000000  -1.000000  0.000000  -0.000  -0.000   0.000
  83     13.2481524   106854.     93.59  0.000000                                   0.000000   0.000   0.000   0.000
  84     13.2526176   106890.     93.55  0.000000                                   0.000000   0.000  -0.000  -0.000
  85     13.2532159   106895.     93.55  0.000000                                   0.000000   0.000   0.000  -0.000
  86     13.4249277   108280.     92.35  0.001151   0.000000   0.000000  -1.000000  0.000000  -0.000  -0.000  -0.000
  87     13.4792402   108718.     91.98  0.029590  -0.218079   0.975931  -0.000000  0.000000  -0.000  -0.000  -0.000
  88     13.4824435   108744.     91.96  0.000000                                   0.000000   0.000   0.000  -0.000
  89     13.5404600   109211.     91.57  0.000000                                   0.000000   0.000  -0.000  -0.000
  90     13.5881414   109596.     91.24  0.000000                                   0.000000  -0.000  -0.000  -0.000
  91     13.6781958   110322.     90.64  0.005437   0.597423   0.801926   0.000000  0.000000   0.000  -0.000   0.000
  92     13.6963730   110469.     90.52  0.001364   0.000000   0.000000   1.000000  0.000000   0.000   0.000  -0.000
  93     13.7490586   110894.     90.18  0.053422   0.000000  -0.000000   1.000000  0.000000   0.000   0.000  -0.000
  94     13.8223398   111485.     89.70  0.000000                                   0.000000   0.000  -0.000   0.000
  95     13.8476841   111689.     89.53  0.003799   0.000000   0.000000  -1.000000  0.000000   0.000   0.000  -0.000
  96     13.8512704   111718.     89.51  0.103374  -0.998139   0.060985  -0.000000  0.000000  -0.000  -0.000  -0.000
  97     13.8638556   111820.     89.43  0.000000                                   0.000000   0.000  -0.000   0.000
  98     14.0234608   113107.     88.41  0.000000                                   0.000000   0.000  -0.000   0.000
  99     14.0755268   113527.     88.08  0.025047  -0.998660   0.051749   0.000000  0.000000  -0.000  -0.000  -0.000
 100     14.0943196   113679.     87.97  0.000000                                   0.000000   0.000  -0.000   0.000
 101     14.1676667   114270.     87.51  0.000000                                   0.000000  -0.000  -0.000  -0.000
 102     14.2304163   114776.     87.13  0.000000                                   0.000000  -0.000  -0.000   0.000
 103     14.2456478   114899.     87.03  0.093562   0.184375  -0.982856  -0.000000  0.000000   0.000  -0.000  -0.000
 104     14.3145678   115455.     86.61  0.000000                                   0.000000  -0.000   0.000  -0.000
 105     14.3854575   116027.     86.19  0.000000                                   0.000000  -0.000  -0.000   0.000
 106     14.4179803   116289.     85.99  0.000000                                   0.000000  -0.000  -0.000   0.000
 107     14.4434741   116495.     85.84  0.002593  -0.000000   0.000000   1.000000  0.000000   0.000   0.000  -0.000
 108     14.5050954   116992.     85.48  0.000270  -0.000000   0.000000   1.000000  0.000000   0.000   0.000   0.000
 109     14.5515425   117366.     85.20  0.000000                                   0.000000  -0.000  -0.000  -0.000
 110     14.6976045   118544.     84.36  0.018017   0.945220  -0.326435   0.000000  0.000000   0.000  -0.000  -0.000
 111     14.7216438   118738.     84.22  0.000000                                   0.000000   0.000  -0.000  -0.000
 112     14.7415462   118899.     84.11  0.065942   0.000000  -0.000000  -1.000000  0.000000   0.000   0.000   0.000
 113     14.8248229   119571.     83.63  0.009966   0.000000  -0.000000  -1.000000  0.000000   0.000  -0.000   0.000
 114     14.9007474   120183.     83.21  0.074635  -0.874287   0.485409  -0.000000  0.000000   0.000  -0.000  -0.000
 115     14.9622862   120679.     82.86  0.019429  -0.039722   0.999211   0.000000  0.000000  -0.000  -0.000  -0.000
 116     15.0724237   121568.     82.26  0.021138  -0.000000   0.000000  -1.000000  0.000000  -0.000  -0.000  -0.000
 117     15.0747650   121586.     82.25  0.000000                                   0.000000  -0.000  -0.000   0.000
 118     15.2424369   122939.     81.34  0.000000                                   0.000000  -0.000  -0.000  -0.000
 119     15.2567319   123054.     81.27  0.182505  -0.053669  -0.998559   0.000000  0.000000   0.000   0.000  -0.000
 120     15.2912104   123332.     81.08  0.000000                                   0.000000   0.000   0.000  -0.000
 121     15.3245652   123601.     80.91  0.000000                                   0.000000  -0.000  -0.000   0.000
 122     15.3379996   123710.     80.83  0.011807   0.000000   0.000000   1.000000  0.000000   0.000  -0.000   0.000
 123     15.3954888   124173.     80.53  0.000699   0.000000  -0.000000  -1.000000  0.000000  -0.000  -0.000  -0.000
 124     15.3957597   124175.     80.53  0.000000                                   0.000000   0.000  -0.000   0.000
 125     15.4546813   124651.     80.22  0.000000                                   0.000000   0.000   0.000  -0.000
 126     15.6162000   125953.     79.39  0.010172   0.000000  -0.000000   1.000000  0.000000   0.000   0.000   0.000
 127     15.6538924   126257.     79.20  0.007781  -0.613960  -0.789337  -0.000000  0.000000  -0.000   0.000   0.000
 128     15.6768428   126443.     79.09  0.393280  -0.384446   0.923148   0.000000  0.000000   0.000  -0.000  -0.000
 129     15.6901100   126550.     79.02  0.000000                                   0.000000   0.000   0.000  -0.000
 130     15.7885878   127344.     78.53  0.000000                                   0.000000  -0.000  -0.000   0.000
 131     15.8202449   127599.     78.37  0.196376  -0.334886   0.942259   0.000000  0.000000  -0.000  -0.000  -0.000
 132     15.8269240   127653.     78.34  0.002350  -0.000000  -0.000000   1.000000  0.000000   0.000   0.000   0.000
 133     15.8386307   127747.     78.28  0.000000                                   0.000000   0.000   0.000  -0.000
 134     15.8635553   127949.     78.16  0.264850   0.233259  -0.972415   0.000000  0.000000  -0.000  -0.000  -0.000
 135     16.0065340   129102.     77.46  0.000000                                   0.000000  -0.000  -0.000   0.000
 136     16.0328336   129314.     77.33  0.000000                                   0.000000  -0.000   0.000  -0.000
 137     16.0516403   129466.     77.24  0.000000                                   0.000000  -0.000  -0.000  -0.000
 138     16.1180927   130002.     76.92  0.000000                                   0.000000  -0.000  -0.000   0.000
 139     16.2433150   131012.     76.33  0.000000                                   0.000000  -0.000  -0.000   0.000
 140     16.2477788   131048.     76.31  0.001562  -0.000000  -0.000000  -1.000000  0.000000   0.000   0.000  -0.000
 141     16.2508424   131072.     76.29  0.166485   0.589663   0.807649  -0.000000  0.000000   0.000  -0.000  -0.000
 142     16.3056289   131514.     76.04  0.000000                                   0.000000  -0.000   0.000  -0.000
 143     16.3323461   131730.     75.91  0.000000                                   0.000000  -0.000   0.000  -0.000
 144     16.3750544   132074.     75.72  0.268590   0.703871  -0.710327  -0.000000  0.000000   0.000   0.000  -0.000
 145     16.4904713   133005.     75.19  0.034130  -0.667504  -0.744606  -0.000000  0.000000   0.000   0.000  -0.000
 146     16.5239693   133275.     75.03  0.000000                                   0.000000   0.000   0.000  -0.000
 147     16.5303041   133326.     75.00  0.145274  -0.433927  -0.900948   0.000000  0.000000  -0.000  -0.000   0.000
 148     16.6084845   133957.     74.65  0.003608   0.856131  -0.516760   0.000000  0.000000  -0.000  -0.000  -0.000
 149     16.6171858   134027.     74.61  0.000000                                   0.000000   0.000   0.000  -0.000
 150     16.7728241   135282.     73.92  0.049230  -0.335757  -0.941949   0.000000  0.000000   0.000  -0.000   0.000
 151     16.8018756   135517.     73.79  0.000000                                   0.000000   0.000  -0.000  -0.000
 152     16.9049509   136348.     73.34  1.063045   0.978039   0.208422   0.000000  0.000000   0.000  -0.000  -0.000
 153     17.0285345   137345.     72.81  0.119250   0.000000  -0.000000   1.000000  0.000000  -0.000  -0.000  -0.000
 154     17.0331185   137382.     72.79  0.000000                                   0.000000   0.000   0.000   0.000
 155     17.0458767   137485.     72.74  0.000000                                   0.000000  -0.000  -0.000   0.000
 156     17.1281276   138148.     72.39  0.010332   0.741424   0.671037   0.000000  0.000000   0.000  -0.000  -0.000
 157     17.1449857   138284.     72.31  0.276968   0.985968  -0.166937  -0.000000  0.000000  -0.000  -0.000  -0.000
 158     17.1482318   138310.     72.30  0.000000                                   0.000000   0.000  -0.000   0.000
 159     17.1716343   138499.     72.20  0.000000                                   0.000000   0.000   0.000  -0.000
 160     17.2528929   139154.     71.86  0.000000                                   0.000000  -0.000   0.000  -0.000
 161     17.3172063   139673.     71.60  0.001276  -0.000000   0.000000   1.000000  0.000000  -0.000  -0.000   0.000
[...]
    Config     423   0.05532234  0.00306056
    Config     425   0.16934569  0.02867796
    Config     427   0.09038782  0.00816996
    Config     428  -0.15988623  0.02556361
    Config     433   0.04679705  0.00218996
    Config     437  -0.07520267  0.00565544
 Total coeff printed             0.98071933
  
State  419 41.9104     CI coeff  CI percent
    Config     394  -0.10375270  0.01076462
    Config     400  -0.08972683  0.00805090
    Config     405   0.27381936  0.07497704
    Config     410   0.13867769  0.01923150
    Config     411   0.05459008  0.00298008
    Config     415  -0.48624985  0.23643892
    Config     416   0.08703077  0.00757435
    Config     418  -0.12713763  0.01616398
    Config     419   0.54059853  0.29224677
    Config     421  -0.55900959  0.31249172
    Config     427  -0.09939706  0.00987978
    Config     437   0.04214397  0.00177611
 Total coeff printed             0.99257577
  
State  420 42.0256     CI coeff  CI percent
    Config     369  -0.04948570  0.00244883
    Config     392  -0.10399553  0.01081507
    Config     396   0.04066568  0.00165370
    Config     406   0.08276795  0.00685053
    Config     409   0.12753376  0.01626486
    Config     412  -0.09367216  0.00877447
    Config     413   0.10709306  0.01146892
    Config     420  -0.91964495  0.84574683
    Config     422  -0.06052907  0.00366377
    Config     424   0.04696014  0.00220525
    Config     429   0.22622379  0.05117720
    Config     434  -0.05346006  0.00285798
    Config     436   0.08182166  0.00669478
    Config     438  -0.10186681  0.01037685
    Config     442  -0.04948193  0.00244846
 Total coeff printed             0.98344752
  
State  421 42.2555     CI coeff  CI percent
    Config     404   0.32215711  0.10378520
    Config     410  -0.04453466  0.00198334
    Config     411  -0.05539199  0.00306827
    Config     415  -0.06959618  0.00484363
    Config     418  -0.08563523  0.00733339
    Config     423  -0.83945674  0.70468761
    Config     425  -0.24052385  0.05785172
    Config     432  -0.31997791  0.10238586
    Config     433  -0.07660811  0.00586880
 Total coeff printed             0.99180782
  
State  422 42.3080     CI coeff  CI percent
    Config     403   0.34334700  0.11788716
    Config     406  -0.06581228  0.00433126
    Config     414  -0.05124524  0.00262607
    Config     417  -0.05410605  0.00292746
    Config     420  -0.05331641  0.00284264
    Config     424  -0.85823278  0.73656351
    Config     426  -0.06956812  0.00483972
    Config     431  -0.34660811  0.12013718
 Total coeff printed             0.99215501
  
State  423 42.6143     CI coeff  CI percent
    Config     382  -0.06387149  0.00407957
    Config     404  -0.14785669  0.02186160
    Config     405  -0.04430083  0.00196256
    Config     408   0.16288968  0.02653305
    Config     410  -0.07029476  0.00494135
    Config     415  -0.05890628  0.00346995
    Config     416  -0.08690490  0.00755246
    Config     418  -0.13335379  0.01778323
    Config     419  -0.11295770  0.01275944
    Config     423   0.19699287  0.03880619
    Config     425  -0.87920976  0.77300980
    Config     427  -0.08352773  0.00697688
    Config     432   0.13816657  0.01909000
    Config     433  -0.22253373  0.04952126
    Config     437   0.04475049  0.00200261
 Total coeff printed             0.99034996
  
State  424 42.7105     CI coeff  CI percent
    Config     391  -0.06582028  0.00433231
    Config     401  -0.05544803  0.00307448
    Config     407   0.26807337  0.07186333
    Config     412  -0.04675139  0.00218569
    Config     413  -0.06741399  0.00454465
    Config     414   0.28976691  0.08396486
    Config     417   0.33476860  0.11207001
    Config     422  -0.83419238  0.69587693
    Config     424  -0.07797570  0.00608021
    Config     429  -0.09427989  0.00888870
    Config     439   0.04916959  0.00241765
 Total coeff printed             0.99529882
  
State  425 42.7267     CI coeff  CI percent
    Config     394  -0.07960428  0.00633684
    Config     405  -0.12205416  0.01489722
    Config     411   0.36551946  0.13360447
    Config     415   0.14622244  0.02138100
    Config     419  -0.56971996  0.32458083
    Config     421  -0.69240435  0.47942379
    Config     423  -0.07283389  0.00530478
    Config     425   0.06434161  0.00413984
    Config     428  -0.04394461  0.00193113
 Total coeff printed             0.99159990
  
State  426 42.9971     CI coeff  CI percent
    Config     381   0.04366102  0.00190629
    Config     384   0.04769185  0.00227451
    Config     396   0.05601848  0.00313807
    Config     402  -0.06696338  0.00448409
    Config     403   0.05072989  0.00257352
    Config     406  -0.15872864  0.02519478
    Config     412   0.08306932  0.00690051
    Config     417   0.05444882  0.00296467
    Config     420  -0.04603215  0.00211896
    Config     422   0.06050883  0.00366132
    Config     424  -0.04627474  0.00214135
    Config     426   0.88245181  0.77872119
    Config     430   0.30453507  0.09274161
    Config     434  -0.23029112  0.05303400
 Total coeff printed             0.98185489
  
State  427 43.1989     CI coeff  CI percent
    Config     386  -0.09035582  0.00816417
    Config     408  -0.12731674  0.01620955
    Config     416  -0.11737303  0.01377643
    Config     418  -0.08920300  0.00795718
    Config     419  -0.10295291  0.01059930
    Config     421   0.08117701  0.00658971
    Config     427  -0.90032144  0.81057869
    Config     428   0.05955537  0.00354684
    Config     433   0.29650456  0.08791496
    Config     435   0.09771348  0.00954792
    Config     437   0.10555843  0.01114258
    Config     441   0.04832032  0.00233485
 Total coeff printed             0.98836219
  
State  428 43.6713     CI coeff  CI percent
    Config     376  -0.04526437  0.00204886
    Config     397   0.08459884  0.00715696
    Config     415  -0.04579816  0.00209747
    Config     418   0.17269042  0.02982198
    Config     427  -0.09289905  0.00863023
    Config     428  -0.90006660  0.81011988
    Config     435  -0.29954147  0.08972509
    Config     437   0.14093563  0.01986285
    Config     440  -0.12205266  0.01489685
 Total coeff printed             0.98436019
  
State  429 43.9113     CI coeff  CI percent
    Config     392   0.06019523  0.00362347
    Config     409  -0.04635490  0.00214878
    Config     412   0.09572357  0.00916300
    Config     420   0.21213589  0.04500164
    Config     422  -0.10042666  0.01008551
    Config     429   0.83081814  0.69025879
    Config     430  -0.24210102  0.05861290
    Config     431  -0.04249840  0.00180611
    Config     434  -0.36210260  0.13111829
    Config     436   0.06815202  0.00464470
    Config     438   0.10697097  0.01144279
    Config     439  -0.12495170  0.01561293
    Config     442   0.04062250  0.00165019
 Total coeff printed             0.98516909
  
State  430 44.3677     CI coeff  CI percent
    Config     392   0.04538844  0.00206011
    Config     406   0.10218238  0.01044124
    Config     412   0.05911252  0.00349429
    Config     420   0.05795790  0.00335912
    Config     424  -0.09982623  0.00996528
    Config     426  -0.16998492  0.02889487
    Config     429   0.34236082  0.11721093
    Config     430   0.76684937  0.58805795
    Config     431   0.35713603  0.12754614
    Config     434   0.29914812  0.08948960
    Config     439  -0.09010661  0.00811920
 Total coeff printed             0.98863873
  
State  431 44.8179     CI coeff  CI percent
    Config     397  -0.04739312  0.00224611
    Config     408  -0.08316796  0.00691691
    Config     416  -0.06731829  0.00453175
    Config     418  -0.06161308  0.00379617
    Config     419  -0.05024090  0.00252415
    Config     421  -0.04044257  0.00163560
    Config     423   0.17586940  0.03093005
    Config     425   0.12695702  0.01611808
    Config     427  -0.11587068  0.01342602
    Config     428   0.22475896  0.05051659
    Config     432  -0.43467228  0.18893999
    Config     433  -0.41236829  0.17004761
    Config     435  -0.54011116  0.29172007
    Config     437   0.45105605  0.20345156
    Config     440   0.05665464  0.00320975
    Config     441  -0.05037143  0.00253728
 Total coeff printed             0.99254768
  
State  432 44.9709     CI coeff  CI percent
    Config     397   0.05754804  0.00331178
    Config     416   0.09492013  0.00900983
    Config     423   0.26345523  0.06940866
    Config     427  -0.08239369  0.00678872
    Config     428  -0.20402193  0.04162495
    Config     432  -0.67325855  0.45327708
    Config     433  -0.23482555  0.05514304
    Config     435   0.56478216  0.31897889
    Config     437  -0.17218263  0.02964686
    Config     440  -0.05209539  0.00271393
    Config     441   0.07675195  0.00589086
 Total coeff printed             0.99579459
  
State  433 45.0417     CI coeff  CI percent
    Config     412  -0.05194394  0.00269817
    Config     422   0.06552478  0.00429350
    Config     424  -0.32284052  0.10422600
    Config     426  -0.05682580  0.00322917
    Config     429  -0.15364695  0.02360739
    Config     430  -0.20572641  0.04232336
    Config     431   0.79815873  0.63705736
    Config     434  -0.34482679  0.11890551
    Config     436   0.16579478  0.02748791
    Config     438   0.09893931  0.00978899
    Config     439   0.15379410  0.02365263
 Total coeff printed             0.99726998
  
State  434 45.1299     CI coeff  CI percent
    Config     409   0.06808551  0.00463564
    Config     424  -0.09401132  0.00883813
    Config     429   0.06853572  0.00469714
    Config     430  -0.10445521  0.01091089
    Config     431   0.21179155  0.04485566
    Config     436  -0.86408879  0.74664943
    Config     438  -0.36176738  0.13087564
    Config     439  -0.18902670  0.03573109
 Total coeff printed             0.98719362
  
State  435 45.3171     CI coeff  CI percent
    Config     408  -0.07263226  0.00527545
    Config     416   0.05977784  0.00357339
    Config     423  -0.17102143  0.02924833
    Config     425   0.23029232  0.05303455
    Config     427  -0.17253277  0.02976756
    Config     428  -0.07755329  0.00601451
    Config     432   0.46969445  0.22061288
    Config     433  -0.73614265  0.54190601
    Config     435   0.29430996  0.08661835
    Config     437   0.13222832  0.01748433
    Config     441   0.04868006  0.00236975
 Total coeff printed             0.99590511
  
State  436 45.4414     CI coeff  CI percent
    Config     412   0.09297698  0.00864472
    Config     424  -0.09945008  0.00989032
    Config     426   0.33890181  0.11485444
    Config     429   0.13404458  0.01796795
    Config     430  -0.42381542  0.17961951
    Config     431   0.22895245  0.05241922
    Config     434   0.72807237  0.53008937
    Config     436   0.19099390  0.03647867
    Config     439  -0.20943322  0.04386227
 Total coeff printed             0.99382647
  
State  437 46.1948     CI coeff  CI percent
    Config     416   0.10336226  0.01068376
    Config     421   0.04370180  0.00190985
    Config     425  -0.04954801  0.00245501
    Config     427   0.22900921  0.05244522
    Config     433   0.26378378  0.06958188
    Config     435   0.36836584  0.13569339
    Config     437   0.81406982  0.66270967
    Config     440   0.07271236  0.00528709
    Config     441   0.23163018  0.05365254
 Total coeff printed             0.99441840
  
State  438 46.4627     CI coeff  CI percent
    Config     409  -0.08125235  0.00660194
    Config     420   0.10653474  0.01134965
    Config     429  -0.08701341  0.00757133
    Config     430   0.06114732  0.00373899
    Config     434  -0.19608264  0.03844840
    Config     436   0.38753774  0.15018550
    Config     438  -0.75089816  0.56384805
    Config     439  -0.42999092  0.18489219
    Config     442  -0.17089299  0.02920441
 Total coeff printed             0.99584047
  
State  439 47.3279     CI coeff  CI percent
    Config     420   0.10898624  0.01187800
    Config     426   0.04319481  0.00186579
    Config     429   0.21688183  0.04703773
    Config     434   0.13867839  0.01923170
    Config     438  -0.44359656  0.19677790
    Config     439   0.80739212  0.65188204
    Config     442  -0.25969413  0.06744104
 Total coeff printed             0.99611420
  
State  440 47.8394     CI coeff  CI percent
    Config     418   0.05456819  0.00297769
    Config     428  -0.09708462  0.00942542
    Config     433  -0.04812334  0.00231586
    Config     435  -0.11312159  0.01279649
    Config     437  -0.16476182  0.02714646
    Config     440   0.78082382  0.60968583
    Config     441   0.57588270  0.33164089
 Total coeff printed             0.99598864
  
State  441 49.2453     CI coeff  CI percent
    Config     428   0.09975978  0.00995201
    Config     435  -0.15890227  0.02524993
    Config     437  -0.09048164  0.00818693
    Config     440  -0.59844481  0.35813619
    Config     441   0.77194425  0.59589793
 Total coeff printed             0.99742299
  
State  442 50.0760     CI coeff  CI percent
    Config     436   0.09369916  0.00877953
    Config     438  -0.26161500  0.06844241
    Config     439   0.15763757  0.02484960
    Config     442   0.94670790  0.89625585
 Total coeff printed             0.99832740
  

 -------------------------------------------------------------------------------
 INDO CIS CHARGE=0




     1SCF WAS SPECIFIED, SO BFGS WAS NOT USED                 
     SCF FIELD WAS ACHIEVED                                   


                              INDO CALCULATION
                                                       MOPAC v22.0.6 MacOS
                                                       Wed Jul 12 16:25:40 2023


          COSMO AREA              =        178.92 SQUARE ANGSTROMS
          COSMO VOLUME            =        165.66 CUBIC ANGSTROMS

          IONIZATION POTENTIAL    =          7.425538 EV
          HOMO LUMO ENERGIES (EV) =         -7.426 -0.455
          NO. OF FILLED LEVELS    =         21
          MOLECULAR WEIGHT        =        106.1670         POINT GROUP:  C2h 

          MOLECULAR DIMENSIONS (Angstroms)

            Atom       Atom       Distance
            H    18    H     9    10.50130
            H    17    H    10     3.17092
            C     1    C     2     0.00000


          SCF CALCULATIONS        =          1

          WALL-CLOCK TIME         =      3.938 SECONDS
          COMPUTATION TIME        =      4.499 SECONDS




   ATOM   CHEMICAL          X               Y               Z
  NUMBER   SYMBOL      (ANGSTROMS)     (ANGSTROMS)     (ANGSTROMS)

     1       C          0.13642800  *   4.31261200  *   0.00000000  *
     2       C          0.65084500  *   3.07095700  *   0.00000000  *
     3       C         -0.13642800  *   1.85596900  *   0.00000000  *
     4       C          0.38926300  *   0.60631000  *   0.00000000  *
     5       C         -0.38926300  *  -0.60631000  *   0.00000000  *
     6       C          0.13642800  *  -1.85596900  *   0.00000000  *
     7       C         -0.65084500  *  -3.07095700  *   0.00000000  *
     8       C         -0.13642800  *  -4.31261200  *   0.00000000  *
     9       H          0.77042500  *   5.19381900  *   0.00000000  *
    10       H         -0.93776100  *   4.48341300  *   0.00000000  *
    11       H          1.73423700  *   2.94537900  *   0.00000000  *
    12       H         -1.22106200  *   1.97279000  *   0.00000000  *
    13       H          1.47457700  *   0.49428800  *   0.00000000  *
    14       H         -1.47457700  *  -0.49428800  *   0.00000000  *
    15       H          1.22106200  *  -1.97279000  *   0.00000000  *
    16       H         -1.73423700  *  -2.94537900  *   0.00000000  *
    17       H          0.93776100  *  -4.48341300  *   0.00000000  *
    18       H         -0.77042500  *  -5.19381900  *   0.00000000  *

                             CARTESIAN COORDINATES

   1    C        0.136428000     4.312612000     0.000000000
   2    C        0.650845000     3.070957000     0.000000000
   3    C       -0.136428000     1.855969000     0.000000000
   4    C        0.389263000     0.606310000     0.000000000
   5    C       -0.389263000    -0.606310000     0.000000000
   6    C        0.136428000    -1.855969000     0.000000000
   7    C       -0.650845000    -3.070957000     0.000000000
   8    C       -0.136428000    -4.312612000     0.000000000
   9    H        0.770425000     5.193819000     0.000000000
  10    H       -0.937761000     4.483413000     0.000000000
  11    H        1.734237000     2.945379000     0.000000000
  12    H       -1.221062000     1.972790000     0.000000000
  13    H        1.474577000     0.494288000     0.000000000
  14    H       -1.474577000    -0.494288000     0.000000000
  15    H        1.221062000    -1.972790000     0.000000000
  16    H       -1.734237000    -2.945379000     0.000000000
  17    H        0.937761000    -4.483413000     0.000000000
  18    H       -0.770425000    -5.193819000     0.000000000


           Empirical Formula: C8 H10  =    18 atoms



      MOLECULAR POINT GROUP   :   C2h 


                  EIGENVALUES  
 -40.18242 -38.11382 -35.02542 -31.26233 -26.60464 -24.71871 -22.86414 -22.65741
 -20.09835 -18.94013 -17.37754 -15.84620 -14.72832 -13.99673 -13.28717 -13.16894
 -12.69902 -12.63454 -11.37466  -9.49368  -7.42554  -0.45458   1.09299   2.22157
   2.86029   3.02664   3.53495   4.03452   4.45324   4.82282   5.36827   5.94759
   6.34242   7.61060   7.62858   8.34620   8.72314   9.01436   9.66761  10.57464
  12.22391  13.98266


              NET ATOMIC CHARGES AND DIPOLE CONTRIBUTIONS

  ATOM NO.   TYPE          CHARGE      No. of ELECS.   s-Pop       p-Pop       
    1          C          -0.067540        4.0675     1.11219     2.95535
    2          C          -0.015189        4.0152     1.08083     2.93436
    3          C          -0.024048        4.0240     1.08488     2.93917
    4          C          -0.023708        4.0237     1.08505     2.93866
    5          C          -0.023708        4.0237     1.08505     2.93866
    6          C          -0.024048        4.0240     1.08488     2.93917
    7          C          -0.015189        4.0152     1.08083     2.93436
    8          C          -0.067540        4.0675     1.11219     2.95535
    9          H           0.023404        0.9766     0.97660
   10          H           0.026277        0.9737     0.97372
   11          H           0.027022        0.9730     0.97298
   12          H           0.027209        0.9728     0.97279
   13          H           0.026573        0.9734     0.97343
   14          H           0.026573        0.9734     0.97343
   15          H           0.027209        0.9728     0.97279
   16          H           0.027022        0.9730     0.97298
   17          H           0.026277        0.9737     0.97372
   18          H           0.023404        0.9766     0.97660
 DIPOLE           X         Y         Z       TOTAL
 POINT-CHG.     0.000    -0.000     0.000     0.000
 HYBRID         0.000     0.000     0.000     0.000
 SUM            0.000    -0.000     0.000     0.000


          ATOMIC ORBITAL ELECTRON POPULATIONS

     Atom    s        px        py        pz   
    1  C   1.11219   0.96393   0.97190   1.01952
    2  C   1.08083   0.96320   0.98820   0.98296
    3  C   1.08488   0.96141   0.97712   1.00064
    4  C   1.08505   0.96231   0.97947   0.99689
    5  C   1.08505   0.96231   0.97947   0.99689
    6  C   1.08488   0.96141   0.97712   1.00064
    7  C   1.08083   0.96320   0.98820   0.98296
    8  C   1.11219   0.96393   0.97190   1.01952
    9  H   0.97660
   10  H   0.97372
   11  H   0.97298
   12  H   0.97279
   13  H   0.97343
   14  H   0.97343
   15  H   0.97279
   16  H   0.97298
   17  H   0.97372
   18  H   0.97660

 **********************
 *                    *
 * JOB ENDED NORMALLY *
 *                    *
 **********************



 TOTAL JOB TIME:             3.97 SECONDS

 == MOPAC DONE ==
