 *******************************************************************************
 **                                                                           **
 **                              MOPAC v22.0.6                                **
 **                                                                           **
 *******************************************************************************
 **          Digital Object Identifier (DOI): 10.5281/zenodo.6511958          **
 **    Visit the DOI location for information on how to cite this program.    **
 *******************************************************************************

                              INDO CALCULATION RESULTS

 *******************************************************************************
 *  CALCULATION DONE:                                Wed Jul 12 16:25:41 2023  *
 *  INDO       - The INDO Hamiltonian to be used
 *  MRCI       -  Use multi-reference CI (specify ref dets using C.A.S.)
 *  C.I.=(N,M) - 12 DOUBLY FILLED LEVELS USED IN A C.I. INVOLVING 24 M.O.'S
 *  T=         - A TIME OF 172800.0 SECONDS REQUESTED
 *  DUMP=N     - RESTART FILE WRITTEN EVERY 7200.0 SECONDS REQUESTED
 *******************************************************************************
INDO MRCI C.I.=(24,12)


   ATOM   CHEMICAL          X               Y               Z
  NUMBER   SYMBOL      (ANGSTROMS)     (ANGSTROMS)     (ANGSTROMS)

     1       C          0.13642800  *   4.31261200  *   0.00000000  *
     2       C          0.65084500  *   3.07095700  *   0.00000000  *
     3       C         -0.13642800  *   1.85596900  *   0.00000000  *
     4       C          0.38926300  *   0.60631000  *   0.00000000  *
     5       C         -0.38926300  *  -0.60631000  *   0.00000000  *
     6       C          0.13642800  *  -1.85596900  *   0.00000000  *
     7       C         -0.65084500  *  -3.07095700  *   0.00000000  *
     8       C         -0.13642800  *  -4.31261200  *   0.00000000  *
     9       H          0.77042500  *   5.19381900  *   0.00000000  *
    10       H         -0.93776100  *   4.48341300  *   0.00000000  *
    11       H          1.73423700  *   2.94537900  *   0.00000000  *
    12       H         -1.22106200  *   1.97279000  *   0.00000000  *
    13       H          1.47457700  *   0.49428800  *   0.00000000  *
    14       H         -1.47457700  *  -0.49428800  *   0.00000000  *
    15       H          1.22106200  *  -1.97279000  *   0.00000000  *
    16       H         -1.73423700  *  -2.94537900  *   0.00000000  *
    17       H          0.93776100  *  -4.48341300  *   0.00000000  *
    18       H         -0.77042500  *  -5.19381900  *   0.00000000  *



          CARTESIAN COORDINATES 

    NO.       ATOM           X           Y           Z

     1         C          0.1364      4.3126      0.0000
     2         C          0.6508      3.0710      0.0000
     3         C         -0.1364      1.8560      0.0000
     4         C          0.3893      0.6063      0.0000
     5         C         -0.3893     -0.6063      0.0000
     6         C          0.1364     -1.8560      0.0000
     7         C         -0.6508     -3.0710      0.0000
     8         C         -0.1364     -4.3126      0.0000
     9         H          0.7704      5.1938      0.0000
    10         H         -0.9378      4.4834      0.0000
    11         H          1.7342      2.9454      0.0000
    12         H         -1.2211      1.9728      0.0000
    13         H          1.4746      0.4943      0.0000
    14         H         -1.4746     -0.4943      0.0000
    15         H          1.2211     -1.9728      0.0000
    16         H         -1.7342     -2.9454      0.0000
    17         H          0.9378     -4.4834      0.0000
    18         H         -0.7704     -5.1938      0.0000

           Empirical Formula: C8 H10  =    18 atoms



      MOLECULAR POINT GROUP   :   C2h 


      RHF CALCULATION, NO. OF DOUBLY OCCUPIED LEVELS = 21

 WARNING: INDO only performs single-point calculations

 Summary of symmetry occupancy in each shell:

 SHELL     
    1   21
    v   21
 TOTAL  42


                     MOLECULAR ORBITALS 






    ROOT NO.    1           2           3           4           5           6

           -40.18242   -38.11382   -35.02542   -31.26233   -26.60464   -24.71871
  
  
  S  C   1   0.15656    -0.28342     0.35740    -0.36109     0.32418    -0.08543
 PX  C   1   0.01125    -0.02285     0.03359    -0.03736     0.01536     0.11226
 PY  C   1  -0.06795     0.10827    -0.09769     0.02568     0.11511    -0.02813
 PZ  C   1  -0.00000     0.00000    -0.00000    -0.00000     0.00000     0.00000
  
  S  C   2   0.27050    -0.40047     0.32949    -0.11186    -0.14967     0.16498
 PX  C   2  -0.04419     0.06609    -0.05211     0.00936     0.02481     0.17554
 PY  C   2  -0.04806     0.01543     0.11135    -0.24419     0.26957    -0.04584
 PZ  C   2  -0.00000     0.00000     0.00000    -0.00000     0.00000     0.00000
  
  S  C   3   0.37051    -0.35024    -0.01637     0.30841    -0.24156    -0.17782
 PX  C   3   0.04963    -0.06132     0.01716     0.05238    -0.08996     0.25360
 PY  C   3  -0.04760    -0.06073     0.21119    -0.14316    -0.16556     0.03423
 PZ  C   3  -0.00000     0.00000     0.00000    -0.00000     0.00000     0.00000
  
  S  C   4   0.41929    -0.14743    -0.32823     0.23598     0.19105     0.15313
 PX  C   4  -0.06038     0.00978     0.06716    -0.02569    -0.07459     0.28616
 PY  C   4   0.00001    -0.13935     0.09461     0.21567    -0.24241    -0.06155
 PZ  C   4  -0.00000    -0.00000     0.00000    -0.00000     0.00000    -0.00000
  
  S  C   5   0.41929     0.14743    -0.32823    -0.23598     0.19105    -0.15313
 PX  C   5   0.06038     0.00978    -0.06716    -0.02569     0.07459     0.28616
 PY  C   5  -0.00001    -0.13935    -0.09461     0.21567     0.24241    -0.06155
 PZ  C   5   0.00000     0.00000    -0.00000    -0.00000    -0.00000     0.00000
  
  S  C   6   0.37051     0.35024    -0.01637    -0.30841    -0.24156     0.17782
 PX  C   6  -0.04963    -0.06132    -0.01716     0.05238     0.08996     0.25360
 PY  C   6   0.04760    -0.06073    -0.21119    -0.14316     0.16556     0.03423
 PZ  C   6   0.00000    -0.00000     0.00000    -0.00000    -0.00000     0.00000
  
  S  C   7   0.27050     0.40047     0.32949     0.11186    -0.14967    -0.16498
 PX  C   7   0.04419     0.06609     0.05211     0.00936    -0.02481     0.17554
 PY  C   7   0.04806     0.01543    -0.11135    -0.24419    -0.26957    -0.04584
 PZ  C   7   0.00000    -0.00000     0.00000    -0.00000     0.00000    -0.00000
  
  S  C   8   0.15656     0.28342     0.35740     0.36109     0.32418     0.08543
 PX  C   8  -0.01125    -0.02285    -0.03359    -0.03736    -0.01536     0.11226
 PY  C   8   0.06795     0.10827     0.09769     0.02568    -0.11511    -0.02813
 PZ  C   8  -0.00000     0.00000    -0.00000    -0.00000     0.00000    -0.00000
  
  S  H   9   0.04987    -0.09740     0.14136    -0.17775     0.22427    -0.01491
  
  S  H  10   0.06518    -0.11656     0.14590    -0.15116     0.16175    -0.12547
  
  S  H  11   0.11162    -0.15869     0.12121    -0.03125    -0.07737     0.21172
  
  S  H  12   0.15156    -0.13949    -0.00451     0.10716    -0.07022    -0.26653
  
  S  H  13   0.17231    -0.05807    -0.12482     0.08495     0.06071     0.28480
  
  S  H  14   0.17231     0.05807    -0.12482    -0.08495     0.06071    -0.28480
  
  S  H  15   0.15156     0.13949    -0.00451    -0.10716    -0.07022     0.26653
  
  S  H  16   0.11162     0.15869     0.12121     0.03125    -0.07737    -0.21172
  
  S  H  17   0.06518     0.11656     0.14590     0.15116     0.16175     0.12547
  
  S  H  18   0.04987     0.09740     0.14136     0.17775     0.22427     0.01491




    ROOT NO.    7           8           9          10          11          12

           -22.86414   -22.65741   -20.09835   -18.94013   -17.37754   -15.84620
  
  
  S  C   1  -0.07559    -0.23695    -0.02480     0.10058     0.01153     0.01372
 PX  C   1   0.21126     0.04317     0.28008    -0.13558    -0.27162     0.21894
 PY  C   1  -0.01552    -0.25610     0.07584     0.32638    -0.20942    -0.29538
 PZ  C   1   0.00000    -0.00000     0.00000     0.00000     0.00000    -0.00000
  
  S  C   2   0.19187     0.24818     0.06140    -0.14058     0.05971    -0.02332
 PX  C   2   0.28377    -0.03004     0.29158     0.03479    -0.18833    -0.12265
 PY  C   2   0.02701    -0.07692     0.11389    -0.23190    -0.02432     0.36835
 PZ  C   2   0.00000    -0.00000     0.00000     0.00000     0.00000    -0.00000
  
  S  C   3  -0.21293     0.01820    -0.01731     0.06876    -0.16684    -0.01819
 PX  C   3   0.22497    -0.03721    -0.03029     0.22977     0.19397    -0.20742
 PY  C   3  -0.07010     0.28555    -0.24596    -0.07945     0.15047    -0.11757
 PZ  C   3   0.00000    -0.00000     0.00000     0.00000     0.00000    -0.00000
  
  S  C   4   0.09380    -0.25988    -0.04832    -0.01805     0.10524     0.14841
 PX  C   4   0.09635    -0.07304    -0.25211     0.16558     0.16525     0.11649
 PY  C   4  -0.01310    -0.13448     0.13795     0.31777    -0.12951    -0.01639
 PZ  C   4  -0.00000     0.00000    -0.00000    -0.00000    -0.00000    -0.00000
  
  S  C   5   0.09380     0.25988     0.04832    -0.01805     0.10524    -0.14841
 PX  C   5  -0.09635    -0.07304    -0.25211    -0.16558    -0.16525     0.11649
 PY  C   5   0.01310    -0.13448     0.13795    -0.31777     0.12951    -0.01639
 PZ  C   5   0.00000    -0.00000    -0.00000    -0.00000    -0.00000    -0.00000
  
  S  C   6  -0.21293    -0.01820     0.01731     0.06876    -0.16684     0.01819
 PX  C   6  -0.22497    -0.03721    -0.03029    -0.22977    -0.19397    -0.20742
 PY  C   6   0.07010     0.28555    -0.24596     0.07945    -0.15047    -0.11757
 PZ  C   6  -0.00000    -0.00000     0.00000     0.00000    -0.00000    -0.00000
  
  S  C   7   0.19187    -0.24818    -0.06140    -0.14058     0.05971     0.02332
 PX  C   7  -0.28377    -0.03004     0.29158    -0.03479     0.18833    -0.12265
 PY  C   7  -0.02701    -0.07692     0.11389     0.23190     0.02432     0.36835
 PZ  C   7  -0.00000    -0.00000    -0.00000    -0.00000    -0.00000    -0.00000
  
  S  C   8  -0.07559     0.23695     0.02480     0.10058     0.01153    -0.01372
 PX  C   8  -0.21126     0.04317     0.28008     0.13558     0.27162     0.21894
 PY  C   8   0.01552    -0.25610     0.07584    -0.32638     0.20942    -0.29538
 PZ  C   8   0.00000    -0.00000     0.00000     0.00000     0.00000    -0.00000
  
  S  H   9   0.03719    -0.24277     0.15322     0.19072    -0.26146    -0.08340
  
  S  H  10  -0.19079    -0.17445    -0.21023     0.18636     0.19302    -0.20816
  
  S  H  11   0.29542     0.10664     0.23030    -0.02250    -0.10957    -0.14674
  
  S  H  12  -0.27154     0.05644    -0.00673    -0.13660    -0.21673     0.14104
  
  S  H  13   0.11593    -0.17280    -0.21457     0.08607     0.18641     0.16912
  
  S  H  14   0.11593     0.17280     0.21457     0.08607     0.18641    -0.16912
  
  S  H  15  -0.27154    -0.05644     0.00673    -0.13660    -0.21673    -0.14104
  
  S  H  16   0.29542    -0.10664    -0.23030    -0.02250    -0.10957     0.14674
  
  S  H  17  -0.19079     0.17445     0.21023     0.18636     0.19302     0.20816
  
  S  H  18   0.03719     0.24277    -0.15322     0.19072    -0.26146     0.08340




    ROOT NO.   13          14          15          16          17          18

           -14.72832   -13.99673   -13.28717   -13.16894   -12.69902   -12.63454
  
  
  S  C   1  -0.03726     0.05023    -0.04639    -0.03799     0.00000     0.01992
 PX  C   1   0.21053     0.29179     0.01321    -0.23214    -0.00000    -0.13214
 PY  C   1   0.26593    -0.11544     0.15298    -0.01363    -0.00000    -0.16922
 PZ  C   1  -0.00000    -0.00000    -0.00000    -0.00000     0.19096    -0.00000
  
  S  C   2  -0.05263    -0.05149    -0.01613    -0.02141     0.00000    -0.06260
 PX  C   2   0.01716    -0.27280     0.07999     0.32215    -0.00000     0.19473
 PY  C   2  -0.15936     0.16587    -0.12791     0.06323     0.00000     0.24842
 PZ  C   2  -0.00000    -0.00000    -0.00000    -0.00000     0.29753    -0.00000
  
  S  C   3   0.09999     0.03621    -0.05661    -0.05822     0.00000    -0.02037
 PX  C   3  -0.20312     0.04615    -0.23061    -0.29035     0.00000    -0.17844
 PY  C   3   0.22966    -0.02431     0.25924    -0.06836    -0.00000    -0.27215
 PZ  C   3  -0.00000    -0.00000     0.00000    -0.00000     0.40939    -0.00000
  
  S  C   4  -0.06282     0.00762    -0.05093     0.01809     0.00000    -0.05061
 PX  C   4   0.17612     0.23904     0.32472     0.09293    -0.00000     0.18985
 PY  C   4  -0.16491     0.18823    -0.21332    -0.06590     0.00000     0.29066
 PZ  C   4   0.00000     0.00000     0.00000     0.00000     0.45542     0.00000
  
  S  C   5   0.06282     0.00762    -0.05093    -0.01809     0.00000    -0.05061
 PX  C   5   0.17612    -0.23904    -0.32472     0.09293     0.00000    -0.18985
 PY  C   5  -0.16491    -0.18823     0.21332    -0.06590    -0.00000    -0.29066
 PZ  C   5   0.00000     0.00000     0.00000     0.00000     0.45542     0.00000
  
  S  C   6  -0.09999     0.03621    -0.05661     0.05822     0.00000    -0.02037
 PX  C   6  -0.20312    -0.04615     0.23061    -0.29035    -0.00000     0.17844
 PY  C   6   0.22966     0.02431    -0.25924    -0.06836     0.00000     0.27215
 PZ  C   6   0.00000     0.00000     0.00000     0.00000     0.40939     0.00000
  
  S  C   7   0.05263    -0.05149    -0.01613     0.02141     0.00000    -0.06260
 PX  C   7   0.01716     0.27280    -0.07999     0.32215     0.00000    -0.19473
 PY  C   7  -0.15936    -0.16587     0.12791     0.06323    -0.00000    -0.24842
 PZ  C   7   0.00000     0.00000     0.00000    -0.00000     0.29753     0.00000
  
  S  C   8   0.03726     0.05023    -0.04639     0.03799     0.00000     0.01992
 PX  C   8   0.21053    -0.29179    -0.01321    -0.23214    -0.00000     0.13214
 PY  C   8   0.26593     0.11544    -0.15298    -0.01363     0.00000     0.16922
 PZ  C   8  -0.00000     0.00000     0.00000    -0.00000     0.19096    -0.00000
  
  S  H   9   0.29145     0.10640     0.10605    -0.16813    -0.00000    -0.20716
  
  S  H  10  -0.16681    -0.25831    -0.00879     0.21315     0.00000     0.12858
  
  S  H  11   0.00804    -0.28758     0.09655     0.29386    -0.00000     0.13505
  
  S  H  12   0.24449    -0.02630     0.22952     0.24213    -0.00000     0.14909
  
  S  H  13   0.12783     0.19060     0.31747     0.10908    -0.00000     0.14366
  
  S  H  14  -0.12783     0.19060     0.31747    -0.10908    -0.00000     0.14366
  
  S  H  15  -0.24449    -0.02630     0.22952    -0.24213    -0.00000     0.14909
  
  S  H  16  -0.00804    -0.28758     0.09655    -0.29386    -0.00000     0.13505
  
  S  H  17   0.16681    -0.25831    -0.00879    -0.21315    -0.00000     0.12858
  
  S  H  18  -0.29145     0.10640     0.10605     0.16813     0.00000    -0.20716




    ROOT NO.   19          20          21          22          23          24

           -11.37466    -9.49368    -7.42554    -0.45458     1.09299     2.22157
  
  
  S  C   1  -0.00000    -0.00000     0.00000     0.00000     0.00000     0.00000
 PX  C   1  -0.00000    -0.00000    -0.00000     0.00000    -0.00000    -0.00000
 PY  C   1   0.00000    -0.00000     0.00000     0.00000     0.00000     0.00000
 PZ  C   1   0.35355     0.44642    -0.38635    -0.38041     0.43611    -0.34573
  
  S  C   2  -0.00000     0.00000    -0.00000    -0.00000    -0.00000    -0.00000
 PX  C   2   0.00000     0.00000     0.00000     0.00000    -0.00000    -0.00000
 PY  C   2   0.00000     0.00000    -0.00000     0.00000     0.00000     0.00000
 PZ  C   2   0.45426     0.39969    -0.19137     0.20034    -0.40731     0.45999
  
  S  C   3  -0.00000    -0.00000    -0.00000     0.00000     0.00000     0.00000
 PX  C   3  -0.00000    -0.00000    -0.00000    -0.00000     0.00000     0.00000
 PY  C   3   0.00000     0.00000    -0.00000    -0.00000    -0.00000    -0.00000
 PZ  C   3   0.36998    -0.09449     0.43243     0.43143    -0.09370    -0.37059
  
  S  C   4  -0.00000     0.00000     0.00000    -0.00000    -0.00000    -0.00000
 PX  C   4   0.00000     0.00000     0.00000     0.00000     0.00000     0.00000
 PY  C   4  -0.00000    -0.00000    -0.00000    -0.00000    -0.00000    -0.00000
 PZ  C   4   0.17820    -0.36336     0.35653    -0.35919     0.36759     0.17759
  
  S  C   5  -0.00000    -0.00000    -0.00000     0.00000     0.00000     0.00000
 PX  C   5  -0.00000     0.00000    -0.00000    -0.00000    -0.00000    -0.00000
 PY  C   5  -0.00000    -0.00000    -0.00000     0.00000     0.00000     0.00000
 PZ  C   5  -0.17820    -0.36336    -0.35653    -0.35919    -0.36759     0.17759
  
  S  C   6  -0.00000    -0.00000     0.00000     0.00000     0.00000     0.00000
 PX  C   6   0.00000     0.00000     0.00000    -0.00000    -0.00000    -0.00000
 PY  C   6   0.00000     0.00000    -0.00000    -0.00000    -0.00000    -0.00000
 PZ  C   6  -0.36998    -0.09449    -0.43243     0.43143     0.09370    -0.37059
  
  S  C   7   0.00000     0.00000    -0.00000    -0.00000    -0.00000    -0.00000
 PX  C   7   0.00000     0.00000    -0.00000    -0.00000    -0.00000    -0.00000
 PY  C   7  -0.00000    -0.00000     0.00000    -0.00000    -0.00000    -0.00000
 PZ  C   7  -0.45426     0.39969     0.19137     0.20034     0.40731     0.45999
  
  S  C   8  -0.00000    -0.00000    -0.00000     0.00000     0.00000     0.00000
 PX  C   8  -0.00000    -0.00000     0.00000    -0.00000     0.00000    -0.00000
 PY  C   8   0.00000     0.00000    -0.00000     0.00000     0.00000     0.00000
 PZ  C   8  -0.35355     0.44642     0.38635    -0.38041    -0.43611    -0.34573
  
  S  H   9   0.00000    -0.00000    -0.00000    -0.00000    -0.00000    -0.00000
  
  S  H  10   0.00000     0.00000     0.00000    -0.00000    -0.00000    -0.00000
  
  S  H  11   0.00000     0.00000     0.00000     0.00000     0.00000     0.00000
  
  S  H  12   0.00000     0.00000    -0.00000    -0.00000    -0.00000    -0.00000
  
  S  H  13   0.00000     0.00000     0.00000     0.00000     0.00000     0.00000
  
  S  H  14   0.00000     0.00000     0.00000    -0.00000    -0.00000    -0.00000
  
  S  H  15   0.00000     0.00000     0.00000    -0.00000    -0.00000    -0.00000
  
  S  H  16  -0.00000    -0.00000    -0.00000     0.00000     0.00000     0.00000
  
  S  H  17  -0.00000    -0.00000     0.00000     0.00000     0.00000     0.00000
  
  S  H  18  -0.00000     0.00000     0.00000    -0.00000    -0.00000    -0.00000




    ROOT NO.   25          26          27          28          29          30

             2.86029     3.02664     3.53495     4.03452     4.45324     4.82282
  
  
  S  C   1  -0.00000    -0.18268    -0.28600     0.31394     0.31382    -0.26604
 PX  C   1  -0.00000    -0.02267    -0.01701    -0.00695    -0.03453     0.05396
 PY  C   1   0.00000     0.05465     0.05330    -0.01020     0.06258    -0.14058
 PZ  C   1   0.18853     0.00000     0.00000     0.00000     0.00000     0.00000
  
  S  C   2   0.00000     0.27499     0.36085    -0.25492    -0.04206    -0.15375
 PX  C   2  -0.00000    -0.04521    -0.02474    -0.01809    -0.02362    -0.03718
 PY  C   2   0.00000    -0.06411    -0.01478    -0.09237    -0.18127     0.17947
 PZ  C   2  -0.30185    -0.00000    -0.00000    -0.00000    -0.00000    -0.00000
  
  S  C   3   0.00000    -0.34488    -0.30351    -0.02985    -0.29020     0.23041
 PX  C   3  -0.00000    -0.04360    -0.02649     0.02011     0.06032    -0.07045
 PY  C   3  -0.00000     0.02662    -0.09311     0.17389     0.06077     0.12266
 PZ  C   3   0.40907    -0.00000    -0.00000     0.00000     0.00000    -0.00000
  
  S  C   4  -0.00000     0.37838     0.11322     0.31829     0.19432     0.17791
 PX  C   4   0.00000    -0.05115     0.00630     0.00789     0.04930     0.04812
 PY  C   4   0.00000    -0.01941     0.13149    -0.09934     0.13379    -0.14970
 PZ  C   4  -0.45388     0.00000     0.00000    -0.00000    -0.00000     0.00000
  
  S  C   5   0.00000    -0.37838     0.11322    -0.31829     0.19432    -0.17791
 PX  C   5  -0.00000    -0.05115    -0.00630     0.00789    -0.04930     0.04812
 PY  C   5   0.00000    -0.01941    -0.13149    -0.09934    -0.13379    -0.14970
 PZ  C   5   0.45388    -0.00000    -0.00000     0.00000    -0.00000    -0.00000
  
  S  C   6   0.00000     0.34488    -0.30351     0.02985    -0.29020    -0.23041
 PX  C   6  -0.00000    -0.04360     0.02649     0.02011    -0.06032    -0.07045
 PY  C   6  -0.00000     0.02662     0.09311     0.17389    -0.06077     0.12266
 PZ  C   6  -0.40907    -0.00000    -0.00000    -0.00000    -0.00000    -0.00000
  
  S  C   7  -0.00000    -0.27499     0.36085     0.25492    -0.04206     0.15375
 PX  C   7   0.00000    -0.04521     0.02474    -0.01809     0.02362    -0.03718
 PY  C   7  -0.00000    -0.06411     0.01478    -0.09237     0.18127     0.17947
 PZ  C   7   0.30185     0.00000     0.00000     0.00000     0.00000     0.00000
  
  S  C   8   0.00000     0.18268    -0.28600    -0.31394     0.31382     0.26604
 PX  C   8  -0.00000    -0.02267     0.01701    -0.00695     0.03453     0.05396
 PY  C   8   0.00000     0.05465    -0.05330    -0.01020    -0.06258    -0.14058
 PZ  C   8  -0.18853    -0.00000    -0.00000    -0.00000    -0.00000    -0.00000
  
  S  H   9   0.00000     0.11676     0.17304    -0.18765    -0.21326     0.23152
  
  S  H  10   0.00000     0.08512     0.16495    -0.22196    -0.25628     0.23507
  
  S  H  11  -0.00000    -0.14268    -0.22769     0.19384     0.03331     0.15768
  
  S  H  12  -0.00000     0.18119     0.19585     0.02197     0.26233    -0.23309
  
  S  H  13   0.00000    -0.19892    -0.07100    -0.24927    -0.17463    -0.17828
  
  S  H  14  -0.00000     0.19892    -0.07100     0.24927    -0.17463     0.17828
  
  S  H  15  -0.00000    -0.18119     0.19585    -0.02197     0.26233     0.23309
  
  S  H  16   0.00000     0.14268    -0.22769    -0.19384     0.03331    -0.15768
  
  S  H  17   0.00000    -0.08512     0.16495     0.22196    -0.25628    -0.23507
  
  S  H  18   0.00000    -0.11676     0.17304     0.18765    -0.21326    -0.23152




    ROOT NO.   31          32          33          34          35          36

             5.36827     5.94759     6.34242     7.61060     7.62858     8.34620
  
  
  S  C   1  -0.16591     0.08215    -0.03054     0.00015    -0.00133    -0.00033
 PX  C   1   0.05574    -0.03276     0.00772     0.46865    -0.47611    -0.09378
 PY  C   1  -0.19373     0.16699    -0.08148     0.14775    -0.15591    -0.12392
 PZ  C   1  -0.00000     0.00000     0.00000     0.00000     0.00000     0.00000
  
  S  C   2  -0.25451     0.20900    -0.10132    -0.03827     0.03730    -0.04410
 PX  C   2  -0.16956     0.25897    -0.18555     0.00806     0.00742     0.22583
 PY  C   2   0.07766     0.01695    -0.03073    -0.00306     0.01057     0.08174
 PZ  C   2   0.00000    -0.00000    -0.00000    -0.00000    -0.00000    -0.00000
  
  S  C   3  -0.04244     0.20276    -0.15659     0.00710    -0.00356     0.07931
 PX  C   3   0.04669    -0.24277     0.25097     0.11559    -0.09138     0.29995
 PY  C   3   0.16518    -0.01269    -0.06634     0.01144    -0.02275    -0.05964
 PZ  C   3   0.00000    -0.00000    -0.00000     0.00000    -0.00000    -0.00000
  
  S  C   4   0.21204     0.08345    -0.19185    -0.01132     0.00466    -0.09538
 PX  C   4   0.15500     0.08551    -0.32721     0.06683    -0.01856     0.36977
 PY  C   4   0.07651    -0.13070     0.02184    -0.01352     0.02924     0.00952
 PZ  C   4  -0.00000     0.00000     0.00000     0.00000     0.00000     0.00000
  
  S  C   5   0.21204    -0.08345    -0.19185     0.01132     0.00466     0.09538
 PX  C   5  -0.15500     0.08551     0.32721     0.06683     0.01856     0.36977
 PY  C   5  -0.07651    -0.13070    -0.02184    -0.01352    -0.02924     0.00952
 PZ  C   5  -0.00000    -0.00000    -0.00000     0.00000    -0.00000    -0.00000
  
  S  C   6  -0.04244    -0.20276    -0.15659    -0.00710    -0.00356    -0.07931
 PX  C   6  -0.04669    -0.24277    -0.25097     0.11559     0.09138     0.29995
 PY  C   6  -0.16518    -0.01269     0.06634     0.01144     0.02275    -0.05964
 PZ  C   6   0.00000     0.00000    -0.00000    -0.00000     0.00000     0.00000
  
  S  C   7  -0.25451    -0.20900    -0.10132     0.03827     0.03730     0.04410
 PX  C   7   0.16956     0.25897     0.18555     0.00806    -0.00742     0.22583
 PY  C   7  -0.07766     0.01695     0.03073    -0.00306    -0.01057     0.08174
 PZ  C   7  -0.00000     0.00000     0.00000     0.00000     0.00000     0.00000
  
  S  C   8  -0.16591    -0.08215    -0.03054    -0.00015    -0.00133     0.00033
 PX  C   8  -0.05574    -0.03276    -0.00772     0.46865     0.47611    -0.09378
 PY  C   8   0.19373     0.16699     0.08148     0.14775     0.15591    -0.12392
 PZ  C   8   0.00000    -0.00000    -0.00000    -0.00000    -0.00000    -0.00000
  
  S  H   9   0.21644    -0.16241     0.07951    -0.31656     0.32427     0.10355
  
  S  H  10   0.15300    -0.06790     0.01568     0.35194    -0.35465    -0.03982
  
  S  H  11   0.30206    -0.30891     0.18318    -0.03332     0.02070    -0.15874
  
  S  H  12   0.04946    -0.28630     0.25332     0.09820    -0.07487     0.23303
  
  S  H  13  -0.24946    -0.11536     0.32586    -0.06208     0.01967    -0.28049
  
  S  H  14  -0.24946     0.11536     0.32586     0.06208     0.01967     0.28049
  
  S  H  15   0.04946     0.28630     0.25332    -0.09820    -0.07487    -0.23303
  
  S  H  16   0.30206     0.30891     0.18318     0.03332     0.02070     0.15874
  
  S  H  17   0.15300     0.06790     0.01568    -0.35194    -0.35465     0.03982
  
  S  H  18   0.21644     0.16241     0.07951     0.31656     0.32427    -0.10355




    ROOT NO.   37          38          39          40          41          42

             8.72314     9.01436     9.66761    10.57464    12.22391    13.98266
  
  
  S  C   1  -0.01458    -0.02773    -0.05764    -0.08935     0.09670    -0.06326
 PX  C   1   0.03467    -0.02890    -0.11009    -0.14577     0.11954    -0.06299
 PY  C   1   0.16699     0.15505     0.23326     0.33299    -0.31475     0.18570
 PZ  C   1   0.00000    -0.00000    -0.00000    -0.00000     0.00000    -0.00000
  
  S  C   2   0.09402     0.10082     0.10603     0.09358    -0.02004    -0.02240
 PX  C   2  -0.35830    -0.33710    -0.25582    -0.14234    -0.02344     0.06253
 PY  C   2  -0.08731    -0.02767     0.15090     0.33361    -0.42589     0.30028
 PZ  C   2  -0.00000    -0.00000     0.00000     0.00000    -0.00000    -0.00000
  
  S  C   3  -0.10226    -0.03713     0.08405     0.11289    -0.03292    -0.04182
 PX  C   3  -0.37758    -0.18454     0.17876     0.23367    -0.09270    -0.01021
 PY  C   3  -0.06015    -0.22009    -0.29359    -0.06880    -0.34003     0.39794
 PZ  C   3  -0.00000    -0.00000     0.00000     0.00000    -0.00000     0.00000
  
  S  C   4   0.04282    -0.09890    -0.10695     0.02804    -0.09438     0.00864
 PX  C   4  -0.10296     0.36033     0.24962    -0.10302     0.12974     0.03580
 PY  C   4   0.14689     0.15272    -0.24730    -0.30300    -0.15439     0.44296
 PZ  C   4   0.00000    -0.00000    -0.00000    -0.00000     0.00000     0.00000
  
  S  C   5   0.04282     0.09890    -0.10695    -0.02804    -0.09438    -0.00864
 PX  C   5   0.10296     0.36033    -0.24962    -0.10302    -0.12974     0.03580
 PY  C   5  -0.14689     0.15272     0.24730    -0.30300     0.15439     0.44296
 PZ  C   5  -0.00000    -0.00000     0.00000     0.00000     0.00000     0.00000
  
  S  C   6  -0.10226     0.03713     0.08405    -0.11289    -0.03292     0.04182
 PX  C   6   0.37758    -0.18454    -0.17876     0.23367     0.09270    -0.01021
 PY  C   6   0.06015    -0.22009     0.29359    -0.06880     0.34003     0.39794
 PZ  C   6   0.00000     0.00000     0.00000     0.00000     0.00000     0.00000
  
  S  C   7   0.09402    -0.10082     0.10603    -0.09358    -0.02004     0.02240
 PX  C   7   0.35830    -0.33710     0.25582    -0.14234     0.02344     0.06253
 PY  C   7   0.08731    -0.02767    -0.15090     0.33361     0.42589     0.30028
 PZ  C   7   0.00000     0.00000    -0.00000    -0.00000     0.00000     0.00000
  
  S  C   8  -0.01458     0.02773    -0.05764     0.08935     0.09670     0.06326
 PX  C   8  -0.03467    -0.02890     0.11009    -0.14577    -0.11954    -0.06299
 PY  C   8  -0.16699     0.15505    -0.23326     0.33299     0.31475     0.18570
 PZ  C   8  -0.00000     0.00000     0.00000     0.00000     0.00000    -0.00000
  
  S  H   9  -0.09029    -0.05491    -0.06520    -0.10107     0.09743    -0.05592
  
  S  H  10  -0.01060    -0.04586    -0.09067    -0.10603     0.07698    -0.03785
  
  S  H  11   0.23655     0.20863     0.14994     0.09215    -0.01412    -0.01049
  
  S  H  12  -0.25283    -0.09557     0.11532     0.11538    -0.02228    -0.02212
  
  S  H  13   0.08404    -0.21259    -0.14939     0.03188    -0.06301     0.00470
  
  S  H  14   0.08404     0.21259    -0.14939    -0.03188    -0.06301    -0.00470
  
  S  H  15  -0.25283     0.09557     0.11532    -0.11538    -0.02228     0.02212
  
  S  H  16   0.23655    -0.20863     0.14994    -0.09215    -0.01412     0.01049
  
  S  H  17  -0.01060     0.04586    -0.09067     0.10603     0.07698     0.03785
  
  S  H  18  -0.09029     0.05491    -0.06520     0.10107     0.09743     0.05592


 Reference determinate nber   1 is ALPHA 1 -  21
 CAS excitations amongst orbitals:  21  22
 SINGLE excitations FROM orbs  10 to  21 INTO orbs  22 to  33


 CI excitations=  531:        =531
 The lowest  531 spin-adapted configurations of multiplicity=  1
     sym   eV   cm**-1 -dets- dipole oscilator X FRAG ....Excitations named from first reference determinate
                       tot  #  Debye  strength

   1     -0.000      0.  1  1  0.0000 0.000000 0  0 (            )->(               )
   2      4.256  34328.  2  1  0.0000 1.853474 1  1 (  21        )->(  22           )
   3      5.591  45097.  2  1  0.0000 0.000000 1  1 (  21        )->(  23           )
   4      6.128  49427.  2  1  0.0000 0.000000 1  1 (  20        )->(  22           )
   5      6.195  49965.  2  1  0.0000 0.000013 1  1 (  21        )->(  26           )
   6      6.267  50544.  1  1  0.0000 0.000000 2  0 (  21  21    )->(  22  22       )
   7      6.495  52389.  2  1  0.0000 0.010154 1  1 (  21        )->(  24           )
   8      6.830  55090.  2  1  0.0000 0.000000 1  1 (  21        )->(  25           )
   9      6.985  56335.  2  1  0.0000 0.000000 1  1 (  21        )->(  27           )
  10      7.445  60049.  2  1  0.0000 0.000907 1  1 (  21        )->(  28           )
  11      7.762  62608.  2  1  0.0000 0.000138 1  1 (  18        )->(  22           )
  12      7.777  62730.  2  1  0.0000 0.507718 1  1 (  20        )->(  23           )
  13      7.782  62763.  2  1  0.0000 0.010307 1  1 (  19        )->(  22           )
  14      7.895  63681.  2  1  0.0000 0.000000 1  1 (  21        )->(  29           )
  15      8.201  66148.  2  1  0.0000 0.000087 1  1 (  15        )->(  22           )
  16      8.259  66613.  2  1  0.0000 0.111348 1  1 (  21        )->(  30           )
  17      8.524  68752.  2  1  0.0000 0.000000 1  1 (  20        )->(  26           )
  18      8.559  69032.  2  1  0.0000 0.000000 1  1 (  20        )->(  24           )
  19      8.600  69361.  2  1  0.0000 0.000000 1  1 (  16        )->(  22           )
  20      8.758  70640.  2  1  0.0000 0.000000 1  1 (  21        )->(  31           )
  21      8.794  70928.  2  1  0.0000 0.000000 1  1 (  17        )->(  22           )
  22      8.872  71561.  2  1  0.0000 0.002703 1  1 (  20        )->(  25           )
  23      9.117  73535.  2  1  0.0000 0.000024 1  1 (  20        )->(  27           )
  24      9.216  74328.  2  1  0.0000 0.002976 1  1 (  21        )->(  32           )
  25      9.274  74797.  2  1  0.0000 0.000000 1  1 (  21        )->(  33           )
  26      9.286  74895.  2  1  0.0000 0.000000 2  1 (  21  21    )->(  22  23       )
  27      9.314  75120.  2  1  0.0000 0.000000 1  1 (  19        )->(  23           )
  28      9.338  75320.  2  1  0.0000 0.000000 2  1 (  21  21    )->(  22  26       )
  29      9.451  76230.  2  1  0.0000 0.000400 1  1 (  14        )->(  22           )
  30      9.507  76678.  2  1  0.0000 0.000000 1  1 (  18        )->(  23           )
  31      9.631  77678.  2  1  0.0000 0.000000 1  1 (  20        )->(  28           )
  32      9.830  79283.  2  1  0.0000 0.000000 2  1 (  20  21    )->(  22  22       )
  33      9.895  79806.  2  1  0.0000 0.000000 2  1 (  21  21    )->(  22  24       )
  34     10.060  81136.  2  1  0.0000 0.009980 1  1 (  20        )->(  29           )
  35     10.085  81344.  2  1  0.0000 0.000000 1  1 (  13        )->(  22           )
  36     10.120  81623.  2  1  0.0000 0.000000 2  1 (  21  21    )->(  22  27       )
  37     10.150  81866.  2  1  0.0000 0.000000 2  1 (  21  21    )->(  22  25       )
  38     10.194  82217.  2  1  0.0000 0.000000 1  1 (  15        )->(  23           )
  39     10.197  82246.  2  1  0.0000 0.000029 1  1 (  16        )->(  23           )
  40     10.303  83097.  2  1  0.0000 0.002220 1  1 (  17        )->(  23           )
  41     10.344  83433.  2  1  0.0000 0.000000 1  1 (  19        )->(  26           )
  42     10.363  83583.  2  1  0.0000 0.269683 1  1 (  19        )->(  24           )
  43     10.400  83883.  2  1  0.0000 0.000000 1  1 (  20        )->(  30           )
  44     10.567  85228.  6  1  0.0000 0.000000 2  1 (  20  21    )->(  22  23       )
  45     10.574  85287.  2  1  0.0000 0.002253 1  1 (  18        )->(  24           )
  46     10.580  85337.  2  1  0.0000 0.000000 2  1 (  21  21    )->(  22  28       )
  47     10.659  85972.  2  1  0.0000 0.000000 1  1 (  19        )->(  25           )
  48     10.857  87566.  2  1  0.0000 0.000000 1  1 (  18        )->(  25           )
  49     10.871  87684.  2  1  0.0000 0.104084 1  1 (  20        )->(  31           )
  50     10.889  87826.  2  1  0.0000 0.000000 2  1 (  18  21    )->(  22  22       )
  51     10.911  88001.  2  1  0.0000 0.000000 1  1 (  14        )->(  23           )
  52     10.920  88072.  2  1  0.0000 0.000000 1  1 (  19        )->(  27           )
  53     11.024  88918.  2  1  0.0000 0.000000 2  1 (  21  21    )->(  22  29       )
  54     11.135  89812.  2  1  0.0000 0.000000 1  1 (  15        )->(  25           )
  55     11.167  90068.  2  1  0.0000 0.000000 1  1 (  16        )->(  24           )
  56     11.177  90151.  2  1  0.0000 0.000000 2  1 (  19  21    )->(  22  22       )
  57     11.208  90396.  2  1  0.0000 0.000000 1  1 (  17        )->(  26           )
  58     11.238  90640.  2  1  0.0000 0.000000 1  1 (  12        )->(  22           )
  59     11.300  91142.  2  1  0.0000 0.000738 1  1 (  15        )->(  24           )
  60     11.325  91341.  2  1  0.0000 0.000000 2  1 (  15  21    )->(  22  22       )
  61     11.340  91460.  2  1  0.0000 0.000000 1  1 (  17        )->(  24           )
  62     11.390  91868.  2  1  0.0000 0.000000 2  1 (  21  21    )->(  22  30       )
  63     11.414  92057.  2  1  0.0000 0.000000 1  1 (  20        )->(  32           )
  64     11.484  92627.  2  1  0.0000 0.002966 1  1 (  19        )->(  28           )
  65     11.679  94196.  2  1  0.0000 0.235588 1  1 (  17        )->(  25           )
  66     11.710  94448.  2  1  0.0000 0.183748 1  1 (  18        )->(  26           )
  67     11.724  94563.  2  1  0.0000 0.001673 1  1 (  20        )->(  33           )
  68     11.731  94615.  2  1  0.0000 0.000000 2  1 (  16  21    )->(  22  22       )
  69     11.774  94963.  2  1  0.0000 0.001354 1  1 (  13        )->(  23           )
  70     11.782  95029.  6  1  0.0000 0.000000 2  1 (  20  21    )->(  22  24       )
  71     11.848  95563.  2  1  0.0000 0.001963 1  1 (  16        )->(  25           )
  72     11.896  95951.  2  1  0.0000 0.000000 2  1 (  21  21    )->(  22  31       )
  73     11.903  96005.  2  1  0.0000 0.000000 1  1 (  19        )->(  29           )
  74     12.037  97086.  6  1  0.0000 0.000000 2  1 (  20  21    )->(  22  26       )
  75     12.082  97452.  2  1  0.0000 0.000000 2  1 (  17  21    )->(  22  22       )
  76     12.085  97471.  2  1  0.0000 0.005273 1  1 (  14        )->(  24           )
  77     12.107  97648.  2  1  0.0000 0.091178 1  1 (  15        )->(  26           )
  78     12.182  98254.  2  1  0.0000 0.000749 1  1 (  17        )->(  27           )
  79     12.244  98754.  2  1  0.0000 0.004174 1  1 (  19        )->(  30           )
  80     12.355  99648.  2  1  0.0000 0.000000 2  1 (  21  21    )->(  22  32       )
  81     12.373  99794.  6  1  0.0000 0.000000 2  1 (  20  21    )->(  22  25       )
  82     12.419 100163.  2  1  0.0000 0.000000 2  1 (  21  21    )->(  22  33       )
  83     12.436 100302.  2  1  0.0000 0.000000 1  1 (  16        )->(  26           )
  84     12.498 100806.  2  1  0.0000 0.000000 1  1 (  18        )->(  27           )
  85     12.528 101043.  6  2  0.0000 0.000000 2  1 (  20  21    )->(  22  23       )
  86     12.534 101092.  6  1  0.0000 0.000000 2  1 (  19  21    )->(  22  23       )
  87     12.564 101338.  6  1  0.0000 0.000000 2  1 (  20  21    )->(  22  27       )
  88     12.583 101486.  2  1  0.0000 0.000000 2  1 (  14  21    )->(  22  22       )
  89     12.592 101562.  2  1  0.0000 0.000000 1  1 (  17        )->(  28           )
  90     12.679 102264.  2  1  0.0000 0.000000 1  1 (  14        )->(  25           )
  91     12.711 102522.  2  1  0.0000 0.010116 1  1 (  12        )->(  23           )
  92     12.724 102627.  2  1  0.0000 0.000000 1  1 (  19        )->(  31           )
  93     12.791 103165.  2  1  0.0000 0.020660 1  1 (  11        )->(  22           )
  94     12.878 103866.  2  1  0.0000 0.000000 1  1 (  13        )->(  24           )
  95     12.917 104185.  2  1  0.0000 0.000000 3  1 (  20  21  21)->(  22  22  23   )
  96     12.944 104403.  2  1  0.0000 0.007279 1  1 (  18        )->(  28           )
  97     12.966 104579.  6  1  0.0000 0.000000 2  1 (  18  21    )->(  22  23       )
  98     12.999 104844.  2  1  0.0000 0.000000 1  1 (  15        )->(  27           )
  99     13.025 105056.  6  2  0.0000 0.000000 2  1 (  20  21    )->(  22  26       )
 100     13.034 105125.  6  1  0.0000 0.000000 2  1 (  20  21    )->(  22  28       )
 101     13.074 105449.  2  1  0.0000 0.000592 1  1 (  17        )->(  29           )
 102     13.140 105981.  2  1  0.0000 0.140504 1  1 (  16        )->(  27           )
 103     13.143 106002.  2  1  0.0000 0.092962 1  1 (  19        )->(  32           )
 104     13.219 106615.  2  1  0.0000 0.015234 1  1 (  14        )->(  26           )
 105     13.222 106645.  2  1  0.0000 0.000000 2  1 (  13  21    )->(  22  22       )
 106     13.237 106765.  6  2  0.0000 0.000000 2  1 (  20  21    )->(  22  24       )
 107     13.322 107447.  2  1  0.0000 0.000000 1  1 (  18        )->(  29           )
 108     13.388 107981.  2  1  0.0000 0.012685 1  1 (  13        )->(  25           )
 109     13.444 108433.  2  1  0.0000 0.034215 1  1 (  15        )->(  28           )
 110     13.457 108537.  2  1  0.0000 0.000000 1  1 (  17        )->(  30           )
 111     13.549 109277.  2  1  0.0000 0.000000 1  1 (  16        )->(  28           )
 112     13.551 109299.  6  2  0.0000 0.000000 2  1 (  20  21    )->(  22  27       )
 113     13.561 109378.  2  1  0.0000 0.000000 1  1 (  19        )->(  33           )
 114     13.562 109384.  6  1  0.0000 0.000000 2  1 (  20  21    )->(  22  29       )
 115     13.616 109818.  6  1  0.0000 0.000000 2  1 (  18  21    )->(  22  26       )
 116     13.641 110021.  6  1  0.0000 0.000000 2  1 (  19  21    )->(  22  24       )
 117     13.661 110181.  6  1  0.0000 0.000000 2  1 (  16  21    )->(  22  23       )
 118     13.668 110243.  6  1  0.0000 0.000000 2  1 (  15  21    )->(  22  23       )
 119     13.762 111002.  2  1  0.0000 0.000000 1  1 (  12        )->(  24           )
 120     13.763 111005.  2  1  0.0000 0.003587 1  1 (  18        )->(  30           )
 121     13.793 111249.  6  1  0.0000 0.000000 2  1 (  17  21    )->(  22  23       )
 122     13.814 111416.  6  2  0.0000 0.000000 2  1 (  20  21    )->(  22  25       )
 123     13.874 111899.  6  1  0.0000 0.000000 2  1 (  20  21    )->(  22  30       )
 124     13.880 111948.  2  1  0.0000 0.000000 1  1 (  14        )->(  27           )
 125     13.919 112267.  2  1  0.0000 0.001714 1  1 (  17        )->(  31           )
 126     13.929 112344.  2  1  0.0000 0.000000 1  1 (  15        )->(  29           )
 127     13.932 112372.  6  1  0.0000 0.000000 2  1 (  15  21    )->(  22  26       )
 128     13.937 112411.  6  2  0.0000 0.000000 2  1 (  18  21    )->(  22  23       )
 129     13.954 112546.  6  1  0.0000 0.000000 2  1 (  19  21    )->(  22  26       )
 130     13.973 112698.  2  1  0.0000 0.000000 1  1 (  13        )->(  26           )
 131     13.978 112738.  6  2  0.0000 0.000000 2  1 (  19  21    )->(  22  23       )
 132     13.988 112820.  2  1  0.0000 0.002156 1  1 (  16        )->(  29           )
 133     14.001 112928.  2  1  0.0000 0.000000 3  1 (  20  21  21)->(  22  22  24   )
 134     14.029 113152.  6  2  0.0000 0.000000 2  1 (  20  21    )->(  22  28       )
 135     14.101 113733.  6  1  0.0000 0.000000 2  1 (  18  21    )->(  22  24       )
 136     14.158 114191.  2  1  0.0000 0.076929 1  1 (  17        )->(  33           )
 137     14.169 114278.  2  1  0.0000 0.000000 1  1 (  18        )->(  31           )
 138     14.185 114408.  2  1  0.0000 0.002010 1  1 (  10        )->(  22           )
 139     14.239 114846.  2  1  0.0000 0.000000 3  1 (  20  21  21)->(  22  22  26   )
 140     14.256 114980.  2  1  0.0000 0.004443 1  1 (  15        )->(  30           )
 141     14.290 115255.  6  1  0.0000 0.000000 2  1 (  20  21    )->(  22  31       )
 142     14.344 115689.  2  1  0.0000 0.000000 1  1 (  17        )->(  32           )
 143     14.351 115749.  6  1  0.0000 0.000000 2  1 (  14  21    )->(  22  23       )
 144     14.352 115756.  6  1  0.0000 0.000000 2  1 (  19  21    )->(  22  27       )
 145     14.354 115773.  2  1  0.0000 0.000000 1  1 (  16        )->(  30           )
 146     14.370 115899.  6  1  0.0000 0.000000 2  1 (  18  21    )->(  22  27       )
 147     14.371 115913.  2  1  0.0000 0.000000 2  1 (  12  21    )->(  22  22       )
 148     14.411 116231.  6  1  0.0000 0.000000 2  1 (  19  21    )->(  22  25       )
 149     14.417 116282.  2  1  0.0000 0.000000 1  1 (  11        )->(  23           )
 150     14.420 116306.  2  1  0.0000 0.000000 3  1 (  20  21  21)->(  22  22  25   )
 151     14.481 116801.  2  1  0.0000 0.160821 1  1 (  14        )->(  28           )
 152     14.512 117049.  6  1  0.0000 0.000000 2  1 (  18  21    )->(  22  25       )
 153     14.519 117102.  6  1  0.0000 0.000000 2  1 (  16  21    )->(  22  26       )
 154     14.544 117307.  6  2  0.0000 0.000000 2  1 (  20  21    )->(  22  29       )
 155     14.554 117384.  2  1  0.0000 0.009560 1  1 (  12        )->(  25           )
 156     14.576 117563.  6  2  0.0000 0.000000 2  1 (  19  21    )->(  22  26       )
 157     14.617 117898.  2  1  0.0000 0.005655 1  1 (  18        )->(  32           )
 158     14.632 118017.  6  2  0.0000 0.000000 2  1 (  16  21    )->(  22  23       )
 159     14.638 118068.  6  2  0.0000 0.000000 2  1 (  15  21    )->(  22  23       )
 160     14.644 118115.  2  1  0.0000 0.023266 1  1 (  13        )->(  27           )
 161     14.648 118144.  6  2  0.0000 0.000000 2  1 (  19  21    )->(  22  24       )
 162     14.679 118393.  6  1  0.0000 0.000000 2  1 (  16  21    )->(  22  24       )
 163     14.698 118551.  2  1  0.0000 0.000000 1  1 (  18        )->(  33           )
 164     14.751 118974.  2  1  0.0000 0.000000 3  1 (  19  21  21)->(  22  22  23   )
 165     14.758 119029.  2  1  0.0000 0.000000 1  1 (  15        )->(  31           )
 166     14.783 119232.  6  2  0.0000 0.000000 2  1 (  18  21    )->(  22  24       )
 167     14.790 119289.  6  1  0.0000 0.000000 2  1 (  15  21    )->(  22  25       )
 168     14.810 119455.  6  1  0.0000 0.000000 2  1 (  17  21    )->(  22  26       )
 169     14.819 119522.  2  1  0.0000 0.000000 3  1 (  20  21  21)->(  22  22  27   )
 170     14.820 119529.  2  1  0.0000 0.000000 1  1 (  14        )->(  29           )
 171     14.824 119560.  6  1  0.0000 0.000000 2  1 (  18  21    )->(  22  28       )
 172     14.857 119826.  6  2  0.0000 0.000000 2  1 (  20  21    )->(  22  30       )
 173     14.861 119861.  6  1  0.0000 0.000000 2  1 (  15  21    )->(  22  24       )
 174     14.871 119945.  2  1  0.0000 0.011175 1  1 (  16        )->(  31           )
 175     14.888 120079.  6  1  0.0000 0.000000 2  1 (  16  21    )->(  22  27       )
 176     14.889 120088.  6  1  0.0000 0.000000 2  1 (  20  21    )->(  22  32       )
 177     15.039 121301.  6  1  0.0000 0.000000 2  1 (  19  21    )->(  22  28       )
 178     15.075 121590.  6  2  0.0000 0.000000 2  1 (  18  21    )->(  22  25       )
 179     15.085 121667.  6  1  0.0000 0.000000 2  1 (  17  21    )->(  22  24       )
 180     15.096 121758.  6  1  0.0000 0.000000 2  1 (  15  21    )->(  22  27       )
 181     15.109 121861.  2  1  0.0000 0.000000 1  1 (  12        )->(  26           )
 182     15.118 121938.  6  2  0.0000 0.000000 2  1 (  19  21    )->(  22  27       )
 183     15.121 121960.  2  1  0.0000 0.000000 1  1 (  13        )->(  28           )
 184     15.193 122543.  2  1  0.0000 0.033932 1  1 (  14        )->(  30           )
 185     15.198 122583.  6  2  0.0000 0.000000 2  1 (  17  21    )->(  22  23       )
 186     15.198 122584.  6  2  0.0000 0.000000 2  1 (  19  21    )->(  22  25       )
 187     15.203 122618.  2  1  0.0000 0.000000 3  1 (  18  21  21)->(  22  22  23   )
 188     15.214 122713.  2  1  0.0000 0.048626 1  1 (  15        )->(  32           )
 189     15.218 122742.  6  1  0.0000 0.000000 2  1 (  20  21    )->(  22  33       )
 190     15.242 122932.  2  1  0.0000 0.000000 1  1 (  15        )->(  33           )
 191     15.256 123044.  6  1  0.0000 0.000000 2  1 (  13  21    )->(  22  23       )
 192     15.282 123261.  6  1  0.0000 0.000000 2  1 (  17  21    )->(  22  25       )
 193     15.283 123267.  6  2  0.0000 0.000000 2  1 (  20  21    )->(  22  31       )
 194     15.326 123611.  6  2  0.0000 0.000000 2  1 (  14  21    )->(  22  23       )
 195     15.333 123672.  2  1  0.0000 0.000000 3  1 (  20  21  21)->(  22  22  28   )
 196     15.351 123812.  6  2  0.0000 0.000000 2  1 (  15  21    )->(  22  25       )
 197     15.364 123917.  6  1  0.0000 0.000000 2  1 (  15  21    )->(  22  28       )
 198     15.364 123921.  6  1  0.0000 0.000000 2  1 (  14  21    )->(  22  26       )
 199     15.366 123935.  6  1  0.0000 0.000000 2  1 (  18  21    )->(  22  29       )
 200     15.377 124026.  6  2  0.0000 0.000000 2  1 (  16  21    )->(  22  24       )
 201     15.414 124324.  6  2  0.0000 0.000000 2  1 (  17  21    )->(  22  26       )
 202     15.467 124751.  2  1  0.0000 0.000000 1  1 (  16        )->(  32           )
 203     15.511 125108.  6  2  0.0000 0.000000 2  1 (  15  21    )->(  22  24       )
 204     15.515 125138.  6  1  0.0000 0.000000 2  1 (  19  21    )->(  22  29       )
 205     15.529 125251.  6  1  0.0000 0.000000 2  1 (  16  21    )->(  22  25       )
 206     15.542 125355.  2  1  0.0000 0.025993 1  1 (  11        )->(  24           )
 207     15.555 125456.  6  1  0.0000 0.000000 2  1 (  16  21    )->(  22  28       )
 208     15.604 125853.  6  1  0.0000 0.000000 2  1 (  14  21    )->(  22  24       )
 209     15.637 126119.  2  1  0.0000 0.128237 1  1 (  13        )->(  29           )
 210     15.650 126225.  2  1  0.0000 0.015825 1  1 (  12        )->(  27           )
 211     15.656 126276.  6  1  0.0000 0.000000 2  1 (  18  21    )->(  22  30       )
 212     15.700 126629.  6  2  0.0000 0.000000 2  1 (  19  21    )->(  22  28       )
 213     15.755 127072.  2  1  0.0000 0.000000 3  1 (  20  21  21)->(  22  22  29   )
 214     15.758 127098.  2  1  0.0000 0.036915 1  1 (  16        )->(  33           )
 215     15.790 127352.  2  1  0.0000 0.000000 1  1 (  14        )->(  31           )
 216     15.809 127510.  6  1  0.0000 0.000000 2  1 (  19  21    )->(  22  30       )
 217     15.816 127568.  2  1  0.0000 0.000000 1  1 (  10        )->(  23           )
 218     15.820 127598.  2  1  0.0000 0.000000 3  1 (  17  21  21)->(  22  22  23   )
 219     15.823 127625.  6  1  0.0000 0.000000 2  1 (  14  21    )->(  22  27       )
 220     15.854 127869.  6  2  0.0000 0.000000 2  1 (  17  21    )->(  22  24       )
 221     15.875 128038.  6  2  0.0000 0.000000 2  1 (  20  21    )->(  22  32       )
 222     15.883 128104.  2  1  0.0000 0.000000 3  1 (  15  21  21)->(  22  22  23   )
 223     15.883 128105.  6  1  0.0000 0.000000 2  1 (  17  21    )->(  22  27       )
 224     15.901 128253.  2  1  0.0000 0.000000 3  1 (  16  21  21)->(  22  22  23   )
 225     15.903 128268.  6  1  0.0000 0.000000 2  1 (  15  21    )->(  22  29       )
 226     15.927 128461.  2  1  0.0000 0.000000 2  1 (  11  21    )->(  22  22       )
 227     15.946 128612.  6  2  0.0000 0.000000 2  1 (  17  21    )->(  22  25       )
 228     15.968 128793.  6  2  0.0000 0.000000 2  1 (  18  21    )->(  22  26       )
 229     15.984 128921.  2  1  0.0000 0.000000 1  1 (  13        )->(  30           )
 230     16.007 129109.  6  1  0.0000 0.000000 2  1 (  16  21    )->(  22  29       )
 231     16.071 129622.  6  1  0.0000 0.000000 2  1 (  18  21    )->(  22  31       )
 232     16.073 129636.  6  2  0.0000 0.000000 2  1 (  16  21    )->(  22  25       )
 233     16.092 129792.  2  1  0.0000 0.000000 1  1 (  11        )->(  25           )
 234     16.097 129833.  2  1  0.0000 0.000000 3  1 (  20  21  21)->(  22  22  30   )
 235     16.103 129877.  2  1  0.0000 0.000000 3  1 (  19  21  21)->(  22  22  24   )
 236     16.125 130056.  6  2  0.0000 0.000000 2  1 (  19  21    )->(  22  29       )
 237     16.131 130102.  6  1  0.0000 0.000000 2  1 (  13  21    )->(  22  26       )
 238     16.157 130312.  6  1  0.0000 0.000000 2  1 (  12  21    )->(  22  23       )
 239     16.204 130691.  6  2  0.0000 0.000000 2  1 (  20  21    )->(  22  33       )
 240     16.222 130838.  6  1  0.0000 0.000000 2  1 (  19  21    )->(  22  31       )
 241     16.227 130877.  2  1  0.0000 0.000000 1  1 (  12        )->(  28           )
 242     16.227 130879.  6  2  0.0000 0.000000 2  1 (  13  21    )->(  22  23       )
 243     16.237 130957.  6  1  0.0000 0.000000 2  1 (  14  21    )->(  22  28       )
 244     16.264 131176.  6  1  0.0000 0.000000 2  1 (  17  21    )->(  22  28       )
 245     16.274 131260.  2  1  0.0000 0.079738 1  1 (  14        )->(  32           )
 246     16.283 131331.  6  1  0.0000 0.000000 2  1 (  15  21    )->(  22  30       )
 247     16.284 131337.  6  1  0.0000 0.000000 2  1 (  16  21    )->(  22  30       )
 248     16.296 131438.  6  2  0.0000 0.000000 2  1 (  14  21    )->(  22  24       )
 249     16.355 131911.  6  1  0.0000 0.000000 2  1 (  14  21    )->(  22  25       )
 250     16.357 131925.  2  1  0.0000 0.000000 3  1 (  19  21  21)->(  22  22  26   )
 251     16.362 131967.  6  2  0.0000 0.000000 2  1 (  15  21    )->(  22  26       )
 252     16.390 132192.  6  2  0.0000 0.000000 2  1 (  17  21    )->(  22  27       )
 253     16.427 132496.  2  1  0.0000 0.134775 1  1 (  13        )->(  31           )
 254     16.435 132558.  6  1  0.0000 0.000000 2  1 (  13  21    )->(  22  24       )
 255     16.458 132746.  6  2  0.0000 0.000000 2  1 (  19  21    )->(  22  30       )
 256     16.504 133115.  2  1  0.0000 0.000000 3  1 (  19  21  21)->(  22  22  25   )
 257     16.558 133553.  6  1  0.0000 0.000000 2  1 (  18  21    )->(  22  32       )
 258     16.559 133560.  2  1  0.0000 0.000000 1  1 (  14        )->(  33           )
 259     16.573 133667.  2  1  0.0000 0.000000 3  1 (  18  21  21)->(  22  22  24   )
 260     16.577 133702.  2  1  0.0000 0.000000 3  1 (  20  21  21)->(  22  22  31   )
 261     16.615 134009.  2  1  0.0000 0.000000 3  1 (  14  21  21)->(  22  22  23   )
 262     16.620 134052.  2  1  0.0000 0.000122 1  1 (  11        )->(  26           )
 263     16.632 134143.  6  1  0.0000 0.000000 2  1 (  13  21    )->(  22  27       )
 264     16.644 134242.  6  1  0.0000 0.000000 2  1 (  19  21    )->(  22  32       )
 265     16.663 134397.  6  1  0.0000 0.000000 2  1 (  18  21    )->(  22  33       )
 266     16.672 134465.  6  1  0.0000 0.000000 2  1 (  15  21    )->(  22  31       )
 267     16.677 134512.  6  1  0.0000 0.000000 2  1 (  16  21    )->(  22  31       )
 268     16.698 134681.  6  2  0.0000 0.000000 2  1 (  16  21    )->(  22  26       )
 269     16.705 134735.  2  1  0.0000 0.124287 1  1 (  12        )->(  29           )
 270     16.750 135098.  6  2  0.0000 0.000000 2  1 (  18  21    )->(  22  27       )
 271     16.754 135128.  6  1  0.0000 0.000000 2  1 (  15  21    )->(  22  33       )
 272     16.797 135481.  6  2  0.0000 0.000000 2  1 (  17  21    )->(  22  28       )
 273     16.821 135669.  6  1  0.0000 0.000000 2  1 (  17  21    )->(  22  29       )
 274     16.874 136099.  6  1  0.0000 0.000000 2  1 (  14  21    )->(  22  29       )
 275     16.903 136335.  6  2  0.0000 0.000000 2  1 (  14  21    )->(  22  25       )
 276     16.918 136457.  2  1  0.0000 0.000000 3  1 (  19  21  21)->(  22  22  27   )
 277     16.933 136575.  6  2  0.0000 0.000000 2  1 (  19  21    )->(  22  31       )
 278     16.960 136795.  2  1  0.0000 0.000000 3  1 (  18  21  21)->(  22  22  25   )
 279     16.998 137096.  2  1  0.0000 0.043150 1  1 (  10        )->(  24           )
 280     17.015 137236.  2  1  0.0000 0.000000 1  1 (  13        )->(  32           )
 281     17.059 137589.  2  1  0.0000 0.000000 1  1 (  12        )->(  30           )
 282     17.070 137680.  6  1  0.0000 0.000000 2  1 (  16  21    )->(  22  32       )
 283     17.086 137811.  6  1  0.0000 0.000000 2  1 (  13  21    )->(  22  25       )
 284     17.099 137915.  6  2  0.0000 0.000000 2  1 (  13  21    )->(  22  24       )
 285     17.122 138099.  2  1  0.0000 0.000000 3  1 (  20  21  21)->(  22  22  32   )
 286     17.130 138164.  6  1  0.0000 0.000000 2  1 (  14  21    )->(  22  30       )
 287     17.131 138170.  6  2  0.0000 0.000000 2  1 (  12  21    )->(  22  23       )
 288     17.138 138224.  6  1  0.0000 0.000000 2  1 (  13  21    )->(  22  28       )
 289     17.147 138299.  6  1  0.0000 0.000000 2  1 (  15  21    )->(  22  32       )
 290     17.153 138347.  6  1  0.0000 0.000000 2  1 (  19  21    )->(  22  33       )
 291     17.160 138401.  2  1  0.0000 0.000000 3  1 (  17  21  21)->(  22  22  24   )
 292     17.172 138505.  6  1  0.0000 0.000000 2  1 (  17  21    )->(  22  30       )
 293     17.174 138514.  2  1  0.0000 0.000000 3  1 (  16  21  21)->(  22  22  24   )
 294     17.196 138698.  6  2  0.0000 0.000000 2  1 (  18  21    )->(  22  28       )
 295     17.224 138919.  2  1  0.0000 0.000000 1  1 (  11        )->(  27           )
 296     17.232 138988.  2  1  0.0000 0.000000 3  1 (  15  21  21)->(  22  22  25   )
 297     17.247 139109.  6  2  0.0000 0.000000 2  1 (  15  21    )->(  22  27       )
 298     17.248 139114.  6  1  0.0000 0.000000 2  1 (  12  21    )->(  22  26       )
 299     17.279 139366.  6  1  0.0000 0.000000 2  1 (  12  21    )->(  22  24       )
 300     17.283 139396.  6  2  0.0000 0.000000 2  1 (  17  21    )->(  22  29       )
 301     17.290 139455.  2  1  0.0000 0.009326 1  1 (  13        )->(  33           )
 302     17.292 139469.  2  1  0.0000 0.000000 3  1 (  15  21  21)->(  22  22  24   )
 303     17.300 139535.  2  1  0.0000 0.000000 3  1 (  17  21  21)->(  22  22  26   )
 304     17.318 139680.  2  1  0.0000 0.000000 2  1 (  10  21    )->(  22  22       )
 305     17.353 139963.  6  2  0.0000 0.000000 2  1 (  19  21    )->(  22  32       )
 306     17.396 140306.  6  2  0.0000 0.000000 2  1 (  16  21    )->(  22  27       )
 307     17.402 140355.  6  1  0.0000 0.000000 2  1 (  14  21    )->(  22  31       )
 308     17.412 140442.  2  1  0.0000 0.000000 1  1 (  10        )->(  25           )
 309     17.444 140697.  2  1  0.0000 0.000000 3  1 (  20  21  21)->(  22  22  33   )
 310     17.481 140994.  6  2  0.0000 0.000000 2  1 (  14  21    )->(  22  26       )
 311     17.484 141019.  2  1  0.0000 0.000000 3  1 (  19  21  21)->(  22  22  28   )
 312     17.488 141050.  2  1  0.0000 0.000000 3  1 (  13  21  21)->(  22  22  23   )
 313     17.494 141103.  6  1  0.0000 0.000000 2  1 (  13  21    )->(  22  29       )
 314     17.553 141574.  2  1  0.0000 0.040885 1  1 (  12        )->(  31           )
 315     17.567 141685.  6  1  0.0000 0.000000 2  1 (  17  21    )->(  22  31       )
 316     17.570 141714.  6  2  0.0000 0.000000 2  1 (  18  21    )->(  22  29       )
 317     17.583 141816.  6  1  0.0000 0.000000 2  1 (  12  21    )->(  22  27       )
 318     17.597 141929.  6  1  0.0000 0.000000 2  1 (  16  21    )->(  22  33       )
 319     17.604 141987.  2  1  0.0000 0.000000 3  1 (  17  21  21)->(  22  22  25   )
 320     17.619 142106.  6  2  0.0000 0.000000 2  1 (  13  21    )->(  22  25       )
 321     17.664 142466.  6  2  0.0000 0.000000 2  1 (  17  21    )->(  22  30       )
 322     17.693 142702.  6  2  0.0000 0.000000 2  1 (  15  21    )->(  22  28       )
 323     17.787 143459.  2  1  0.0000 0.001652 1  1 (  11        )->(  28           )
 324     17.791 143493.  6  2  0.0000 0.000000 2  1 (  19  21    )->(  22  33       )
 325     17.801 143579.  6  1  0.0000 0.000000 2  1 (  17  21    )->(  22  33       )
 326     17.805 143605.  6  2  0.0000 0.000000 2  1 (  16  21    )->(  22  28       )
 327     17.835 143846.  6  1  0.0000 0.000000 2  1 (  13  21    )->(  22  30       )
 328     17.896 144339.  2  1  0.0000 0.000000 3  1 (  19  21  21)->(  22  22  29   )
 329     17.905 144411.  6  1  0.0000 0.000000 2  1 (  11  21    )->(  22  23       )
 330     17.960 144858.  2  1  0.0000 0.000000 3  1 (  16  21  21)->(  22  22  25   )
 331     17.975 144981.  6  2  0.0000 0.000000 2  1 (  12  21    )->(  22  24       )
 332     17.981 145026.  2  1  0.0000 0.000000 3  1 (  18  21  21)->(  22  22  26   )
 333     17.992 145113.  2  1  0.0000 0.000000 1  1 (  12        )->(  32           )
 334     18.010 145262.  6  1  0.0000 0.000000 2  1 (  17  21    )->(  22  32       )
 335     18.012 145278.  6  2  0.0000 0.000000 2  1 (  18  21    )->(  22  30       )
 336     18.058 145649.  6  1  0.0000 0.000000 2  1 (  14  21    )->(  22  32       )
 337     18.078 145810.  2  1  0.0000 0.001805 1  1 (  10        )->(  26           )
 338     18.092 145920.  2  1  0.0000 0.000000 3  1 (  14  21  21)->(  22  22  24   )
 339     18.124 146184.  6  2  0.0000 0.000000 2  1 (  17  21    )->(  22  31       )
 340     18.136 146274.  6  2  0.0000 0.000000 2  1 (  14  21    )->(  22  27       )
 341     18.152 146409.  6  1  0.0000 0.000000 2  1 (  12  21    )->(  22  28       )
 342     18.174 146584.  6  2  0.0000 0.000000 2  1 (  15  21    )->(  22  29       )
 343     18.233 147060.  6  1  0.0000 0.000000 2  1 (  12  21    )->(  22  25       )
 344     18.238 147102.  2  1  0.0000 0.000000 3  1 (  19  21  21)->(  22  22  30   )
 345     18.240 147116.  6  2  0.0000 0.000000 2  1 (  13  21    )->(  22  26       )
 346     18.240 147120.  6  2  0.0000 0.000000 2  1 (  16  21    )->(  22  29       )
 347     18.257 147256.  2  1  0.0000 0.000000 1  1 (  11        )->(  29           )
 348     18.261 147286.  2  1  0.0000 0.000000 3  1 (  17  21  21)->(  22  22  27   )
 349     18.369 148159.  6  2  0.0000 0.000000 2  1 (  17  21    )->(  22  33       )
 350     18.371 148173.  2  1  0.0000 0.000000 3  1 (  15  21  21)->(  22  22  26   )
 351     18.405 148447.  6  1  0.0000 0.000000 2  1 (  14  21    )->(  22  33       )
 352     18.409 148481.  2  1  0.0000 0.015343 1  1 (  12        )->(  33           )
 353     18.420 148566.  2  1  0.0000 0.000000 3  1 (  12  21  21)->(  22  22  23   )
 354     18.422 148585.  6  2  0.0000 0.000000 2  1 (  18  21    )->(  22  31       )
 355     18.424 148596.  6  1  0.0000 0.000000 2  1 (  13  21    )->(  22  31       )
 356     18.502 149227.  6  2  0.0000 0.000000 2  1 (  15  21    )->(  22  30       )
 357     18.552 149629.  6  2  0.0000 0.000000 2  1 (  17  21    )->(  22  32       )
 358     18.607 150079.  6  2  0.0000 0.000000 2  1 (  16  21    )->(  22  30       )
 359     18.642 150359.  2  1  0.0000 0.239475 1  1 (  11        )->(  30           )
 360     18.655 150461.  6  1  0.0000 0.000000 2  1 (  12  21    )->(  22  29       )
 361     18.672 150601.  2  1  0.0000 0.000000 3  1 (  17  21  21)->(  22  22  28   )
 362     18.715 150947.  2  1  0.0000 0.000000 3  1 (  16  21  21)->(  22  22  26   )
 363     18.727 151044.  2  1  0.0000 0.000000 3  1 (  19  21  21)->(  22  22  31   )
 364     18.738 151130.  6  2  0.0000 0.000000 2  1 (  14  21    )->(  22  28       )
 365     18.743 151176.  2  1  0.0000 0.000000 1  1 (  10        )->(  27           )
 366     18.756 151277.  2  1  0.0000 0.000000 3  1 (  18  21  21)->(  22  22  27   )
 367     18.780 151474.  6  2  0.0000 0.000000 2  1 (  12  21    )->(  22  25       )
 368     18.791 151562.  2  1  0.0000 0.000000 3  1 (  14  21  21)->(  22  22  25   )
 369     18.818 151780.  6  1  0.0000 0.000000 2  1 (  11  21    )->(  22  26       )
 370     18.872 152217.  6  2  0.0000 0.000000 2  1 (  18  21    )->(  22  32       )
 371     18.876 152243.  6  2  0.0000 0.000000 2  1 (  11  21    )->(  22  23       )
 372     18.880 152280.  6  1  0.0000 0.000000 2  1 (  13  21    )->(  22  32       )
 373     18.894 152393.  2  1  0.0000 0.000000 3  1 (  13  21  21)->(  22  22  24   )
 374     18.905 152480.  6  2  0.0000 0.000000 2  1 (  13  21    )->(  22  27       )
 375     18.927 152659.  6  1  0.0000 0.000000 2  1 (  12  21    )->(  22  30       )
 376     18.959 152915.  6  2  0.0000 0.000000 2  1 (  18  21    )->(  22  33       )
 377     19.008 153310.  6  2  0.0000 0.000000 2  1 (  15  21    )->(  22  31       )
 378     19.072 153829.  6  2  0.0000 0.000000 2  1 (  14  21    )->(  22  29       )
 379     19.101 154062.  6  1  0.0000 0.000000 2  1 (  11  21    )->(  22  24       )
 380     19.129 154285.  6  2  0.0000 0.000000 2  1 (  16  21    )->(  22  31       )
 381     19.147 154431.  2  1  0.0000 0.000000 3  1 (  17  21  21)->(  22  22  29   )
 382     19.148 154436.  2  1  0.0000 0.000000 1  1 (  11        )->(  31           )
 383     19.148 154442.  2  1  0.0000 0.000000 3  1 (  19  21  21)->(  22  22  32   )
 384     19.173 154640.  6  1  0.0000 0.000000 2  1 (  13  21    )->(  22  33       )
 385     19.203 154881.  2  1  0.0000 0.000000 3  1 (  18  21  21)->(  22  22  28   )
 386     19.250 155262.  2  1  0.0000 0.000000 3  1 (  15  21  21)->(  22  22  27   )
 387     19.250 155266.  2  1  0.0000 0.000761 1  1 (  10        )->(  28           )
 388     19.266 155392.  6  1  0.0000 0.000000 2  1 (  10  21    )->(  22  23       )
 389     19.330 155907.  6  1  0.0000 0.000000 2  1 (  12  21    )->(  22  31       )
 390     19.336 155955.  6  1  0.0000 0.000000 2  1 (  11  21    )->(  22  27       )
 391     19.373 156258.  6  2  0.0000 0.000000 2  1 (  12  21    )->(  22  26       )
 392     19.382 156329.  6  2  0.0000 0.000000 2  1 (  13  21    )->(  22  28       )
 393     19.406 156518.  2  1  0.0000 0.000000 3  1 (  16  21  21)->(  22  22  27   )
 394     19.447 156850.  6  2  0.0000 0.000000 2  1 (  14  21    )->(  22  30       )
 395     19.466 157006.  6  2  0.0000 0.000000 2  1 (  15  21    )->(  22  32       )
 396     19.498 157262.  2  1  0.0000 0.000000 3  1 (  14  21  21)->(  22  22  26   )
 397     19.499 157271.  6  2  0.0000 0.000000 2  1 (  15  21    )->(  22  33       )
 398     19.510 157357.  2  1  0.0000 0.000000 3  1 (  13  21  21)->(  22  22  25   )
 399     19.532 157533.  2  1  0.0000 0.000000 3  1 (  17  21  21)->(  22  22  30   )
 400     19.573 157868.  2  1  0.0000 0.000000 3  1 (  18  21  21)->(  22  22  29   )
 401     19.578 157910.  2  1  0.0000 0.000000 3  1 (  19  21  21)->(  22  22  33   )
 402     19.696 158859.  2  1  0.0000 0.000000 3  1 (  15  21  21)->(  22  22  28   )
 403     19.717 159027.  2  1  0.0000 0.010851 1  1 (  11        )->(  32           )
 404     19.726 159103.  6  2  0.0000 0.000000 2  1 (  16  21    )->(  22  32       )
 405     19.749 159288.  2  1  0.0000 0.000000 1  1 (  10        )->(  29           )
 406     19.763 159403.  6  2  0.0000 0.000000 2  1 (  11  21    )->(  22  24       )
 407     19.774 159486.  2  1  0.0000 0.000000 3  1 (  12  21  21)->(  22  22  24   )
 408     19.775 159499.  6  1  0.0000 0.000000 2  1 (  11  21    )->(  22  28       )
 409     19.787 159595.  6  1  0.0000 0.000000 2  1 (  11  21    )->(  22  25       )
 410     19.815 159821.  2  1  0.0000 0.000000 3  1 (  16  21  21)->(  22  22  28   )
 411     19.881 160349.  6  1  0.0000 0.000000 2  1 (  12  21    )->(  22  32       )
 412     19.894 160458.  6  2  0.0000 0.000000 2  1 (  13  21    )->(  22  29       )
 413     19.908 160568.  6  2  0.0000 0.000000 2  1 (  12  21    )->(  22  27       )
 414     19.993 161259.  2  1  0.0000 0.000000 1  1 (  11        )->(  33           )
 415     20.002 161330.  2  1  0.0000 0.000000 3  1 (  17  21  21)->(  22  22  31   )
 416     20.016 161439.  2  1  0.0000 0.000000 3  1 (  18  21  21)->(  22  22  30   )
 417     20.023 161496.  6  2  0.0000 0.000000 2  1 (  16  21    )->(  22  33       )
 418     20.047 161694.  6  2  0.0000 0.000000 2  1 (  14  21    )->(  22  31       )
 419     20.126 162331.  2  1  0.0000 0.049713 1  1 (  10        )->(  30           )
 420     20.130 162362.  2  1  0.0000 0.000000 3  1 (  11  21  21)->(  22  22  23   )
 421     20.146 162488.  2  1  0.0000 0.000000 3  1 (  14  21  21)->(  22  22  27   )
 422     20.174 162712.  2  1  0.0000 0.000000 3  1 (  15  21  21)->(  22  22  29   )
 423     20.181 162774.  6  1  0.0000 0.000000 2  1 (  11  21    )->(  22  29       )
 424     20.195 162886.  6  1  0.0000 0.000000 2  1 (  10  21    )->(  22  26       )
 425     20.240 163246.  6  2  0.0000 0.000000 2  1 (  10  21    )->(  22  23       )
 426     20.242 163267.  6  2  0.0000 0.000000 2  1 (  13  21    )->(  22  30       )
 427     20.247 163307.  2  1  0.0000 0.000000 3  1 (  16  21  21)->(  22  22  29   )
 428     20.255 163371.  2  1  0.0000 0.000000 3  1 (  17  21  21)->(  22  22  33   )
 429     20.262 163423.  2  1  0.0000 0.000000 3  1 (  13  21  21)->(  22  22  26   )
 430     20.322 163911.  6  2  0.0000 0.000000 2  1 (  11  21    )->(  22  25       )
 431     20.351 164146.  6  1  0.0000 0.000000 2  1 (  12  21    )->(  22  33       )
 432     20.430 164776.  2  1  0.0000 0.000000 3  1 (  17  21  21)->(  22  22  32   )
 433     20.430 164780.  2  1  0.0000 0.000000 3  1 (  18  21  21)->(  22  22  31   )
 434     20.485 165224.  6  2  0.0000 0.000000 2  1 (  12  21    )->(  22  28       )
 435     20.502 165361.  2  1  0.0000 0.000000 3  1 (  15  21  21)->(  22  22  30   )
 436     20.524 165541.  6  1  0.0000 0.000000 2  1 (  11  21    )->(  22  30       )
 437     20.526 165556.  6  1  0.0000 0.000000 2  1 (  10  21    )->(  22  24       )
 438     20.533 165613.  6  2  0.0000 0.000000 2  1 (  14  21    )->(  22  32       )
 439     20.581 165999.  2  1  0.0000 0.000000 1  1 (  10        )->(  31           )
 440     20.615 166273.  2  1  0.0000 0.000000 3  1 (  16  21  21)->(  22  22  30   )
 441     20.670 166718.  2  1  0.0000 0.000000 3  1 (  12  21  21)->(  22  22  25   )
 442     20.690 166876.  6  2  0.0000 0.000000 2  1 (  13  21    )->(  22  31       )
 443     20.748 167348.  2  1  0.0000 0.000000 3  1 (  14  21  21)->(  22  22  28   )
 444     20.809 167836.  6  1  0.0000 0.000000 2  1 (  10  21    )->(  22  27       )
 445     20.824 167959.  6  2  0.0000 0.000000 2  1 (  14  21    )->(  22  33       )
 446     20.882 168424.  2  1  0.0000 0.000000 3  1 (  18  21  21)->(  22  22  32   )
 447     20.887 168467.  6  2  0.0000 0.000000 2  1 (  11  21    )->(  22  26       )
 448     20.920 168733.  2  1  0.0000 0.000000 3  1 (  13  21  21)->(  22  22  27   )
 449     20.960 169053.  6  2  0.0000 0.000000 2  1 (  12  21    )->(  22  29       )
 450     20.974 169168.  2  1  0.0000 0.000000 3  1 (  18  21  21)->(  22  22  33   )
 451     21.013 169479.  2  1  0.0000 0.000000 3  1 (  15  21  21)->(  22  22  31   )
 452     21.045 169742.  6  1  0.0000 0.000000 2  1 (  11  21    )->(  22  31       )
 453     21.079 170018.  2  1  0.0000 0.000000 3  1 (  14  21  21)->(  22  22  29   )
 454     21.097 170156.  2  1  0.0000 0.083772 1  1 (  10        )->(  32           )
 455     21.097 170161.  6  1  0.0000 0.000000 2  1 (  10  21    )->(  22  25       )
 456     21.141 170513.  2  1  0.0000 0.000000 3  1 (  16  21  21)->(  22  22  31   )
 457     21.175 170792.  6  1  0.0000 0.000000 2  1 (  10  21    )->(  22  28       )
 458     21.212 171088.  6  2  0.0000 0.000000 2  1 (  10  21    )->(  22  24       )
 459     21.223 171174.  2  1  0.0000 0.000000 1  1 (  10        )->(  33           )
 460     21.279 171629.  6  2  0.0000 0.000000 2  1 (  13  21    )->(  22  32       )
 461     21.315 171914.  6  2  0.0000 0.000000 2  1 (  12  21    )->(  22  30       )
 462     21.393 172543.  2  1  0.0000 0.000000 3  1 (  12  21  21)->(  22  22  26   )
 463     21.398 172585.  2  1  0.0000 0.000000 3  1 (  13  21  21)->(  22  22  28   )
 464     21.455 173046.  2  1  0.0000 0.000000 3  1 (  14  21  21)->(  22  22  30   )
 465     21.472 173186.  2  1  0.0000 0.000000 3  1 (  15  21  21)->(  22  22  32   )
 466     21.484 173281.  6  2  0.0000 0.000000 2  1 (  11  21    )->(  22  27       )
 467     21.511 173497.  2  1  0.0000 0.000000 3  1 (  15  21  21)->(  22  22  33   )
 468     21.524 173606.  2  1  0.0000 0.000000 3  1 (  10  21  21)->(  22  22  23   )
 469     21.539 173728.  6  1  0.0000 0.000000 2  1 (  11  21    )->(  22  32       )
 470     21.558 173875.  2  1  0.0000 0.000000 3  1 (  11  21  21)->(  22  22  24   )
 471     21.560 173893.  6  2  0.0000 0.000000 2  1 (  13  21    )->(  22  33       )
 472     21.639 174533.  6  2  0.0000 0.000000 2  1 (  10  21    )->(  22  25       )
 473     21.680 174859.  6  1  0.0000 0.000000 2  1 (  10  21    )->(  22  29       )
 474     21.740 175343.  2  1  0.0000 0.000000 3  1 (  16  21  21)->(  22  22  32   )
 475     21.813 175933.  6  2  0.0000 0.000000 2  1 (  12  21    )->(  22  31       )
 476     21.822 176006.  6  1  0.0000 0.000000 2  1 (  11  21    )->(  22  33       )
 477     21.906 176686.  2  1  0.0000 0.000000 3  1 (  13  21  21)->(  22  22  29   )
 478     21.920 176800.  2  1  0.0000 0.000000 3  1 (  12  21  21)->(  22  22  27   )
 479     22.011 177532.  6  1  0.0000 0.000000 2  1 (  10  21    )->(  22  30       )
 480     22.042 177782.  2  1  0.0000 0.000000 3  1 (  16  21  21)->(  22  22  33   )
 481     22.047 177824.  6  2  0.0000 0.000000 2  1 (  11  21    )->(  22  28       )
 482     22.060 177923.  2  1  0.0000 0.000000 3  1 (  14  21  21)->(  22  22  31   )
 483     22.213 179160.  2  1  0.0000 0.000000 3  1 (  11  21  21)->(  22  22  25   )
 484     22.253 179484.  6  2  0.0000 0.000000 2  1 (  12  21    )->(  22  32       )
 485     22.255 179502.  2  1  0.0000 0.000000 3  1 (  13  21  21)->(  22  22  30   )
 486     22.342 180204.  6  2  0.0000 0.000000 2  1 (  10  21    )->(  22  26       )
 487     22.477 181286.  6  1  0.0000 0.000000 2  1 (  10  21    )->(  22  31       )
 488     22.498 181459.  2  1  0.0000 0.000000 3  1 (  12  21  21)->(  22  22  28   )
 489     22.514 181592.  6  2  0.0000 0.000000 2  1 (  11  21    )->(  22  29       )
 490     22.547 181855.  2  1  0.0000 0.000000 3  1 (  14  21  21)->(  22  22  32   )
 491     22.676 182898.  6  2  0.0000 0.000000 2  1 (  12  21    )->(  22  33       )
 492     22.707 183145.  2  1  0.0000 0.000000 3  1 (  13  21  21)->(  22  22  31   )
 493     22.844 184246.  2  1  0.0000 0.000000 3  1 (  14  21  21)->(  22  22  33   )
 494     22.900 184702.  6  2  0.0000 0.000000 2  1 (  11  21    )->(  22  30       )
 495     22.908 184770.  2  1  0.0000 0.000000 3  1 (  11  21  21)->(  22  22  26   )
 496     22.969 185260.  2  1  0.0000 0.000000 3  1 (  12  21  21)->(  22  22  29   )
 497     23.001 185516.  6  2  0.0000 0.000000 2  1 (  10  21    )->(  22  27       )
 498     23.008 185574.  2  1  0.0000 0.000000 3  1 (  10  21  21)->(  22  22  24   )
 499     23.074 186103.  6  1  0.0000 0.000000 2  1 (  10  21    )->(  22  32       )
 500     23.275 187722.  6  1  0.0000 0.000000 2  1 (  10  21    )->(  22  33       )
 501     23.298 187909.  2  1  0.0000 0.000000 3  1 (  13  21  21)->(  22  22  32   )
 502     23.325 188127.  2  1  0.0000 0.000000 3  1 (  12  21  21)->(  22  22  30   )
 503     23.410 188813.  6  2  0.0000 0.000000 2  1 (  11  21    )->(  22  31       )
 504     23.499 189530.  2  1  0.0000 0.000000 3  1 (  11  21  21)->(  22  22  27   )
 505     23.509 189610.  6  2  0.0000 0.000000 2  1 (  10  21    )->(  22  28       )
 506     23.528 189769.  2  1  0.0000 0.000000 3  1 (  10  21  21)->(  22  22  25   )
 507     23.584 190220.  2  1  0.0000 0.000000 3  1 (  13  21  21)->(  22  22  33   )
 508     23.827 192181.  2  1  0.0000 0.000000 3  1 (  12  21  21)->(  22  22  31   )
 509     23.980 193415.  6  2  0.0000 0.000000 2  1 (  11  21    )->(  22  32       )
 510     24.004 193603.  6  2  0.0000 0.000000 2  1 (  10  21    )->(  22  29       )
 511     24.062 194077.  2  1  0.0000 0.000000 3  1 (  11  21  21)->(  22  22  28   )
 512     24.263 195693.  6  2  0.0000 0.000000 2  1 (  11  21    )->(  22  33       )
 513     24.269 195743.  2  1  0.0000 0.000000 3  1 (  12  21  21)->(  22  22  32   )
 514     24.361 196486.  2  1  0.0000 0.000000 3  1 (  10  21  21)->(  22  22  26   )
 515     24.382 196653.  6  2  0.0000 0.000000 2  1 (  10  21    )->(  22  30       )
 516     24.526 197816.  2  1  0.0000 0.000000 3  1 (  11  21  21)->(  22  22  29   )
 517     24.698 199203.  2  1  0.0000 0.000000 3  1 (  12  21  21)->(  22  22  33   )
 518     24.841 200355.  6  2  0.0000 0.000000 2  1 (  10  21    )->(  22  31       )
 519     24.912 200933.  2  1  0.0000 0.000000 3  1 (  11  21  21)->(  22  22  30   )
 520     25.013 201744.  2  1  0.0000 0.000000 3  1 (  10  21  21)->(  22  22  27   )
 521     25.358 204524.  6  2  0.0000 0.000000 2  1 (  10  21    )->(  22  32       )
 522     25.426 205078.  2  1  0.0000 0.000000 3  1 (  11  21  21)->(  22  22  31   )
 523     25.490 205588.  6  2  0.0000 0.000000 2  1 (  10  21    )->(  22  33       )
 524     25.521 205842.  2  1  0.0000 0.000000 3  1 (  10  21  21)->(  22  22  28   )
 525     25.998 209692.  2  1  0.0000 0.000000 3  1 (  11  21  21)->(  22  22  32   )
 526     26.013 209806.  2  1  0.0000 0.000000 3  1 (  10  21  21)->(  22  22  29   )
 527     26.287 212016.  2  1  0.0000 0.000000 3  1 (  11  21  21)->(  22  22  33   )
 528     26.392 212863.  2  1  0.0000 0.000000 3  1 (  10  21  21)->(  22  22  30   )
 529     26.855 216599.  2  1  0.0000 0.000000 3  1 (  10  21  21)->(  22  22  31   )
 530     27.373 220780.  2  1  0.0000 0.000000 3  1 (  10  21  21)->(  22  22  32   )
 531     27.511 221890.  2  1  0.0000 0.000000 3  1 (  10  21  21)->(  22  22  33   )

 Depression of ground-state after CI=      -8677. cm**-1 Energy= -1399.9545074 eV
 Dipole moment= -0.000000 -0.000000  0.000000 tot=  0.000000 Debyes


  CI trans.  energy frequency wavelength oscillator--------- polarization---------  dipole  ------ components-----
 st.  symm.    eV      cm - 1       nm      strength       x          y         z       moment     x       y       z 

   2      4.6677451    37648.    265.62  0.000000                                   0.000000   0.000   0.000   0.000
   3      4.8870181    39417.    253.70  1.135325   0.039402  -0.999223   0.000000  0.000000  -0.000  -0.000   0.000
   4      5.5202245    44524.    224.60  0.000243   0.702301   0.711880  -0.000000  0.000000   0.000  -0.000  -0.000
   5      6.3283579    51042.    195.92  0.000000                                   0.000000   0.000  -0.000  -0.000
   6      6.5613033    52921.    188.96  0.000006  -0.000000   0.000000   1.000000  0.000000   0.000  -0.000   0.000
   7      6.7053657    54083.    184.90  0.000000                                   0.000000  -0.000  -0.000   0.000
   8      7.0208761    56627.    176.59  0.000000                                   0.000000  -0.000  -0.000   0.000
   9      7.0897901    57183.    174.88  0.000000                                   0.000000   0.000  -0.000  -0.000
  10      7.4851660    60372.    165.64  0.001275   0.000000  -0.000000  -1.000000  0.000000  -0.000  -0.000  -0.000
  11      7.8102523    62994.    158.75  0.039500  -0.055161   0.998477  -0.000000  0.000000  -0.000  -0.000   0.000
  12      7.8144445    63028.    158.66  0.000000                                   0.000000  -0.000   0.000  -0.000
  13      8.0754333    65133.    153.53  0.166886   0.000000  -0.000000   1.000000  0.000000  -0.000  -0.000  -0.000
  14      8.1028821    65354.    153.01  0.000567   0.000000  -0.000000  -1.000000  0.000000   0.000  -0.000   0.000
  15      8.1121053    65429.    152.84  0.231421  -0.549046   0.835792   0.000000  0.000000   0.000   0.000   0.000
  16      8.5054618    68601.    145.77  0.000000                                   0.000000   0.000   0.000   0.000
  17      8.5394146    68875.    145.19  0.016322  -0.135895  -0.990723   0.000000  0.000000   0.000  -0.000   0.000
  18      8.5457120    68926.    145.08  0.000000                                   0.000000   0.000  -0.000  -0.000
  19      8.5831918    69228.    144.45  0.000000                                   0.000000  -0.000   0.000   0.000
  20      8.6021956    69382.    144.13  0.000123  -0.000000   0.000000  -1.000000  0.000000   0.000  -0.000  -0.000
  21      8.6966532    70143.    142.57  0.000000                                   0.000000  -0.000  -0.000  -0.000
  22      8.8306550    71224.    140.40  0.001080   0.000000  -0.000000   1.000000  0.000000   0.000  -0.000   0.000
  23      9.0041914    72624.    137.70  0.011786  -0.426010   0.904718   0.000000  0.000000   0.000   0.000   0.000
  24      9.0705676    73159.    136.69  0.000000                                   0.000000  -0.000  -0.000   0.000
  25      9.0952874    73359.    136.32  0.000170   0.000000  -0.000000   1.000000  0.000000   0.000  -0.000  -0.000
  26      9.2781481    74834.    133.63  0.000000                                   0.000000  -0.000   0.000   0.000
  27      9.4921466    76560.    130.62  0.007369   0.000000  -0.000000  -1.000000  0.000000   0.000   0.000   0.000
  28      9.5297019    76862.    130.10  0.000000                                   0.000000  -0.000  -0.000  -0.000
  29      9.5447524    76984.    129.90  0.000000                                   0.000000   0.000   0.000  -0.000
  30      9.6138605    77541.    128.96  0.000000                                   0.000000   0.000   0.000  -0.000
  31      9.6944658    78191.    127.89  0.000000                                   0.000000   0.000  -0.000  -0.000
  32      9.7042169    78270.    127.76  0.026975   0.279588  -0.960120   0.000000  0.000000  -0.000  -0.000   0.000
  33      9.8509804    79454.    125.86  0.000000                                   0.000000   0.000   0.000   0.000
  34      9.9415491    80184.    124.71  0.000128  -0.000000   0.000000   1.000000  0.000000   0.000  -0.000  -0.000
  35     10.0042742    80690.    123.93  0.000000                                   0.000000  -0.000  -0.000   0.000
[...]
    Config     366   0.09920125  0.00984089
    Config     380   0.12507622  0.01564406
    Config     386  -0.07986811  0.00637892
    Config     394   0.06747672  0.00455311
    Config     400   0.07921486  0.00627499
    Config     410   0.28396208  0.08063446
    Config     413   0.11733398  0.01376726
    Config     417  -0.07640324  0.00583746
    Config     421  -0.30001649  0.09000990
    Config     429  -0.07737681  0.00598717
    Config     433  -0.06966659  0.00485343
    Config     440   0.06517368  0.00424761
    Config     447  -0.10777633  0.01161574
    Config     453   0.14843611  0.02203328
    Config     459   0.07126815  0.00507915
    Config     462   0.23894906  0.05709666
    Config     463  -0.07503287  0.00562993
    Config     474  -0.04989047  0.00248906
    Config     475  -0.10577572  0.01118850
    Config     482  -0.26334805  0.06935220
    Config     485  -0.07580807  0.00574686
    Config     486   0.13234734  0.01751582
    Config     491   0.21218269  0.04502149
    Config     493  -0.20501129  0.04202963
    Config     494  -0.07310652  0.00534456
    Config     499  -0.06284878  0.00394997
    Config     502   0.09991542  0.00998309
    Config     504   0.18696747  0.03495684
    Config     505   0.27268140  0.07435515
    Config     509  -0.07418601  0.00550356
    Config     513   0.06070905  0.00368559
    Config     515   0.10192143  0.01038798
    Config     516  -0.04892976  0.00239412
    Config     520   0.15503266  0.02403513
    Config     522  -0.09705052  0.00941880
    Config     526   0.09653347  0.00931871
    Config     527   0.07600123  0.00577619
    Config     529   0.05724147  0.00327659
    Config     531  -0.12060282  0.01454504
 Total coeff printed             0.97728070
  
State  495 24.9430     CI coeff  CI percent
    Config     126  -0.07632661  0.00582575
    Config     145   0.05541207  0.00307050
    Config     165   0.08023864  0.00643824
    Config     229  -0.11300719  0.01277062
    Config     241   0.05952228  0.00354290
    Config     310   0.05493589  0.00301795
    Config     322  -0.07709391  0.00594347
    Config     346   0.08478970  0.00718929
    Config     356   0.23300701  0.05429227
    Config     370  -0.04923406  0.00242399
    Config     374  -0.04908772  0.00240960
    Config     380  -0.10070974  0.01014245
    Config     386  -0.07006577  0.00490921
    Config     395  -0.06622107  0.00438523
    Config     405  -0.05811757  0.00337765
    Config     412   0.11280660  0.01272533
    Config     413  -0.07379378  0.00544552
    Config     421   0.11071633  0.01225810
    Config     422  -0.22281195  0.04964517
    Config     429  -0.06320892  0.00399537
    Config     433   0.04096273  0.00167794
    Config     440  -0.15420290  0.02377853
    Config     442  -0.13677502  0.01870741
    Config     447  -0.05077634  0.00257824
    Config     451   0.25811671  0.06662423
    Config     462  -0.05022372  0.00252242
    Config     463   0.04615960  0.00213071
    Config     467   0.05135978  0.00263783
    Config     474   0.05359136  0.00287203
    Config     481  -0.09196732  0.00845799
    Config     485  -0.36737147  0.13496179
    Config     488   0.11840554  0.01401987
    Config     491  -0.08713029  0.00759169
    Config     493   0.15628525  0.02442508
    Config     494  -0.08401490  0.00705850
    Config     501   0.07262266  0.00527405
    Config     505   0.20880525  0.04359963
    Config     509  -0.25856206  0.06685434
    Config     513   0.05555874  0.00308677
    Config     515  -0.21787475  0.04746941
    Config     516  -0.41402831  0.17141944
    Config     520  -0.18547339  0.03440038
    Config     521  -0.12601330  0.01587935
    Config     522  -0.05407322  0.00292391
    Config     526   0.20563634  0.04228630
    Config     527   0.08012352  0.00641978
 Total coeff printed             0.97346627
  
State  496 24.9934     CI coeff  CI percent
    Config     102  -0.06306938  0.00397775
    Config     104   0.05830268  0.00339920
    Config     151  -0.06395602  0.00409037
    Config     210   0.06758740  0.00456806
    Config     214  -0.05601998  0.00313824
    Config     268   0.10189093  0.01038176
    Config     270  -0.06068971  0.00368324
    Config     316   0.07181643  0.00515760
    Config     323  -0.04026673  0.00162141
    Config     326  -0.12674856  0.01606520
    Config     340   0.16892027  0.02853406
    Config     342  -0.05861735  0.00343599
    Config     376  -0.07212057  0.00520138
    Config     377   0.05817336  0.00338414
    Config     378  -0.04367948  0.00190790
    Config     385  -0.07686910  0.00590886
    Config     391  -0.09923167  0.00984692
    Config     393  -0.16963881  0.02877733
    Config     396   0.16749807  0.02805560
    Config     416  -0.06357341  0.00404158
    Config     418  -0.12877173  0.01658216
    Config     419  -0.09185158  0.00843671
    Config     426  -0.07478468  0.00559275
    Config     427  -0.07472304  0.00558353
    Config     434   0.05560874  0.00309233
    Config     435   0.11794880  0.01391192
    Config     443   0.19036102  0.03623732
    Config     445   0.07058829  0.00498271
    Config     446   0.07294613  0.00532114
    Config     454  -0.04041844  0.00163365
    Config     456   0.11807696  0.01394217
    Config     461   0.04505760  0.00203019
    Config     464   0.11173414  0.01248452
    Config     477  -0.12194003  0.01486937
    Config     478  -0.15837490  0.02508261
    Config     480   0.21306128  0.04539511
    Config     484  -0.04103807  0.00168412
    Config     487  -0.04943763  0.00244408
    Config     490  -0.06165051  0.00380078
    Config     492  -0.05156476  0.00265892
    Config     495   0.05174230  0.00267727
    Config     497  -0.06903595  0.00476596
    Config     500  -0.04289821  0.00184026
    Config     503   0.10857093  0.01178765
    Config     507   0.08347360  0.00696784
    Config     508  -0.33425135  0.11172396
    Config     510   0.16544649  0.02737254
    Config     511  -0.24824166  0.06162392
    Config     512   0.09140813  0.00835545
    Config     514   0.14293891  0.02043153
    Config     517   0.21740095  0.04726317
    Config     518  -0.41110163  0.16900455
    Config     523   0.16986556  0.02885431
    Config     524  -0.23688727  0.05611558
    Config     525   0.09414406  0.00886310
    Config     528   0.07116064  0.00506384
 Total coeff printed             0.97365360
  
State  497 25.2306     CI coeff  CI percent
    Config     107  -0.04333082  0.00187756
    Config     163   0.07595870  0.00576972
    Config     202   0.07324864  0.00536536
    Config     229  -0.04444079  0.00197498
    Config     241  -0.08108474  0.00657473
    Config     294   0.06501039  0.00422635
    Config     322  -0.06540458  0.00427776
    Config     335  -0.04170594  0.00173939
    Config     346  -0.05809427  0.00337494
    Config     356   0.05746964  0.00330276
    Config     370  -0.17223402  0.02966456
    Config     380  -0.04414123  0.00194845
    Config     394   0.08187269  0.00670314
    Config     395  -0.06622444  0.00438568
    Config     400  -0.10898988  0.01187879
    Config     412   0.09828763  0.00966046
    Config     417  -0.18248189  0.03329964
    Config     421  -0.05067395  0.00256785
    Config     422  -0.08953320  0.00801619
    Config     433   0.09109585  0.00829845
    Config     439   0.08598622  0.00739363
    Config     440   0.06111771  0.00373537
    Config     442  -0.05893997  0.00347392
    Config     449  -0.09614854  0.00924454
    Config     450   0.24515147  0.06009924
    Config     451   0.09914939  0.00983060
    Config     453  -0.04121458  0.00169864
    Config     462  -0.05851901  0.00342447
    Config     463   0.08967858  0.00804225
    Config     471   0.04295673  0.00184528
    Config     474   0.24029795  0.05774310
    Config     475  -0.04439214  0.00197066
    Config     482  -0.11656142  0.01358656
    Config     485  -0.09769811  0.00954492
    Config     486  -0.10983585  0.01206391
    Config     488  -0.17982409  0.03233670
    Config     491  -0.10227877  0.01046095
    Config     493  -0.10003063  0.01000613
    Config     494   0.05151261  0.00265355
    Config     499  -0.04131639  0.00170704
    Config     504  -0.04107623  0.00168726
    Config     505  -0.22360938  0.05000115
    Config     509   0.21876997  0.04786030
    Config     513   0.38440346  0.14776602
    Config     515   0.10869508  0.01181462
    Config     516  -0.09922533  0.00984567
    Config     520   0.16158295  0.02610905
    Config     521  -0.36627104  0.13415447
    Config     522  -0.21554506  0.04645967
    Config     526  -0.27087517  0.07337336
    Config     527  -0.04211131  0.00177336
    Config     531   0.04492791  0.00201852
 Total coeff printed             0.96863171
  
State  498 25.2374     CI coeff  CI percent
    Config     140  -0.05553350  0.00308397
    Config     157   0.06321533  0.00399618
    Config     174  -0.04958807  0.00245898
    Config     188   0.06892156  0.00475018
    Config     214  -0.06741530  0.00454482
    Config     253   0.09780811  0.00956643
    Config     342   0.06447318  0.00415679
    Config     354  -0.06932173  0.00480550
    Config     358   0.04361040  0.00190187
    Config     376  -0.14243351  0.02028730
    Config     377  -0.16540950  0.02736030
    Config     392  -0.04507728  0.00203196
    Config     397  -0.07884166  0.00621601
    Config     402   0.05013229  0.00251325
    Config     404  -0.18080892  0.03269187
    Config     426   0.10104478  0.01021005
    Config     435  -0.17396335  0.03026325
    Config     443  -0.04988285  0.00248830
    Config     445   0.04874723  0.00237629
    Config     446   0.22992088  0.05286361
    Config     448  -0.04395501  0.00193204
    Config     454  -0.08254416  0.00681354
    Config     456  -0.15773865  0.02488148
    Config     460  -0.08723464  0.00760988
    Config     464   0.04826746  0.00232975
    Config     465   0.19876346  0.03950691
    Config     477   0.05254824  0.00276132
    Config     480   0.22413788  0.05023779
    Config     484  -0.07818204  0.00611243
    Config     489   0.08824961  0.00778799
    Config     492   0.26719811  0.07139483
    Config     495   0.04646144  0.00215867
    Config     500  -0.04081344  0.00166574
    Config     503   0.17110008  0.02927524
    Config     508  -0.15597843  0.02432927
    Config     510   0.04399343  0.00193542
    Config     517  -0.43393983  0.18830378
    Config     518  -0.11223673  0.01259708
    Config     519   0.29036829  0.08431375
    Config     523  -0.37962443  0.14411471
    Config     525   0.20992483  0.04406843
 Total coeff printed             0.98269695
  
State  499 25.2382     CI coeff  CI percent
    Config      45  -0.04551411  0.00207153
    Config      59   0.04792214  0.00229653
    Config      69   0.09198908  0.00846199
    Config      76   0.04005125  0.00160410
    Config     105  -0.04785799  0.00229039
    Config     108   0.12846763  0.01650393
    Config     159  -0.04029016  0.00162330
    Config     178   0.08252783  0.00681084
    Config     196  -0.08547520  0.00730601
    Config     200  -0.04259868  0.00181465
    Config     206  -0.19966225  0.03986501
    Config     254  -0.13304847  0.01770190
    Config     259  -0.11365376  0.01291718
    Config     275  -0.07281300  0.00530173
    Config     284   0.30031796  0.09019088
    Config     302   0.11793341  0.01390829
    Config     312   0.20109380  0.04043871
    Config     329  -0.13517116  0.01827124
    Config     330   0.05276311  0.00278395
    Config     331   0.05600102  0.00313611
    Config     338  -0.10430465  0.01087946
    Config     371   0.19152771  0.03668286
    Config     398  -0.34633863  0.11995045
    Config     409  -0.17395795  0.03026137
    Config     430   0.34841184  0.12139081
    Config     441   0.06334748  0.00401290
    Config     470  -0.60413576  0.36498001
    Config     498  -0.04684907  0.00219484
 Total coeff printed             0.98565098
  
State  500 25.3432     CI coeff  CI percent
    Config      48   0.04135347  0.00171011
    Config      54   0.04254046  0.00180969
    Config      94   0.14022027  0.01966172
    Config     149  -0.09469168  0.00896651
    Config     166  -0.07958438  0.00633367
    Config     191   0.09491490  0.00900884
    Config     203   0.08428782  0.00710444
    Config     226  -0.04845268  0.00234766
    Config     232   0.04256864  0.00181209
    Config     233  -0.17920300  0.03211372
    Config     242  -0.12508633  0.01564659
    Config     248   0.07633938  0.00582770
    Config     278   0.11986163  0.01436681
    Config     283   0.10692273  0.01143247
    Config     293  -0.04417483  0.00195142
    Config     296   0.12170774  0.01481277
    Config     320  -0.26599681  0.07075430
    Config     367  -0.05056618  0.00255694
    Config     368   0.10553417  0.01113746
    Config     373  -0.35085118  0.12309655
    Config     379   0.17120811  0.02931222
    Config     406  -0.36698098  0.13467504
    Config     407  -0.08010899  0.00641745
    Config     420  -0.20864158  0.04353131
    Config     483   0.63407826  0.40205524
    Config     506  -0.07397941  0.00547295
 Total coeff printed             0.98391568
  

 -------------------------------------------------------------------------------
 INDO MRCI C.I.=(24,12)




     1SCF WAS SPECIFIED, SO BFGS WAS NOT USED                 
     SCF FIELD WAS ACHIEVED                                   


                              INDO CALCULATION
                                                       MOPAC v22.0.6 MacOS
                                                       Wed Jul 12 16:25:58 2023


          COSMO AREA              =        178.92 SQUARE ANGSTROMS
          COSMO VOLUME            =        165.66 CUBIC ANGSTROMS

          IONIZATION POTENTIAL    =          7.425538 EV
          HOMO LUMO ENERGIES (EV) =         -7.426 -0.455
          NO. OF FILLED LEVELS    =         21
          MOLECULAR WEIGHT        =        106.1670         POINT GROUP:  C2h 

          MOLECULAR DIMENSIONS (Angstroms)

            Atom       Atom       Distance
            H    18    H     9    10.50130
            H    17    H    10     3.17092
            C     1    C     2     0.00000


          SCF CALCULATIONS        =          1

          WALL-CLOCK TIME         =     17.422 SECONDS
          COMPUTATION TIME        =     17.914 SECONDS




   ATOM   CHEMICAL          X               Y               Z
  NUMBER   SYMBOL      (ANGSTROMS)     (ANGSTROMS)     (ANGSTROMS)

     1       C          0.13642800  *   4.31261200  *   0.00000000  *
     2       C          0.65084500  *   3.07095700  *   0.00000000  *
     3       C         -0.13642800  *   1.85596900  *   0.00000000  *
     4       C          0.38926300  *   0.60631000  *   0.00000000  *
     5       C         -0.38926300  *  -0.60631000  *   0.00000000  *
     6       C          0.13642800  *  -1.85596900  *   0.00000000  *
     7       C         -0.65084500  *  -3.07095700  *   0.00000000  *
     8       C         -0.13642800  *  -4.31261200  *   0.00000000  *
     9       H          0.77042500  *   5.19381900  *   0.00000000  *
    10       H         -0.93776100  *   4.48341300  *   0.00000000  *
    11       H          1.73423700  *   2.94537900  *   0.00000000  *
    12       H         -1.22106200  *   1.97279000  *   0.00000000  *
    13       H          1.47457700  *   0.49428800  *   0.00000000  *
    14       H         -1.47457700  *  -0.49428800  *   0.00000000  *
    15       H          1.22106200  *  -1.97279000  *   0.00000000  *
    16       H         -1.73423700  *  -2.94537900  *   0.00000000  *
    17       H          0.93776100  *  -4.48341300  *   0.00000000  *
    18       H         -0.77042500  *  -5.19381900  *   0.00000000  *

                             CARTESIAN COORDINATES

   1    C        0.136428000     4.312612000     0.000000000
   2    C        0.650845000     3.070957000     0.000000000
   3    C       -0.136428000     1.855969000     0.000000000
   4    C        0.389263000     0.606310000     0.000000000
   5    C       -0.389263000    -0.606310000     0.000000000
   6    C        0.136428000    -1.855969000     0.000000000
   7    C       -0.650845000    -3.070957000     0.000000000
   8    C       -0.136428000    -4.312612000     0.000000000
   9    H        0.770425000     5.193819000     0.000000000
  10    H       -0.937761000     4.483413000     0.000000000
  11    H        1.734237000     2.945379000     0.000000000
  12    H       -1.221062000     1.972790000     0.000000000
  13    H        1.474577000     0.494288000     0.000000000
  14    H       -1.474577000    -0.494288000     0.000000000
  15    H        1.221062000    -1.972790000     0.000000000
  16    H       -1.734237000    -2.945379000     0.000000000
  17    H        0.937761000    -4.483413000     0.000000000
  18    H       -0.770425000    -5.193819000     0.000000000


           Empirical Formula: C8 H10  =    18 atoms



      MOLECULAR POINT GROUP   :   C2h 


                  EIGENVALUES  
 -40.18242 -38.11382 -35.02542 -31.26233 -26.60464 -24.71871 -22.86414 -22.65741
 -20.09835 -18.94013 -17.37754 -15.84620 -14.72832 -13.99673 -13.28717 -13.16894
 -12.69902 -12.63454 -11.37466  -9.49368  -7.42554  -0.45458   1.09299   2.22157
   2.86029   3.02664   3.53495   4.03452   4.45324   4.82282   5.36827   5.94759
   6.34242   7.61060   7.62858   8.34620   8.72314   9.01436   9.66761  10.57464
  12.22391  13.98266


              NET ATOMIC CHARGES AND DIPOLE CONTRIBUTIONS

  ATOM NO.   TYPE          CHARGE      No. of ELECS.   s-Pop       p-Pop       
    1          C          -0.067540        4.0675     1.11219     2.95535
    2          C          -0.015189        4.0152     1.08083     2.93436
    3          C          -0.024048        4.0240     1.08488     2.93917
    4          C          -0.023708        4.0237     1.08505     2.93866
    5          C          -0.023708        4.0237     1.08505     2.93866
    6          C          -0.024048        4.0240     1.08488     2.93917
    7          C          -0.015189        4.0152     1.08083     2.93436
    8          C          -0.067540        4.0675     1.11219     2.95535
    9          H           0.023404        0.9766     0.97660
   10          H           0.026277        0.9737     0.97372
   11          H           0.027022        0.9730     0.97298
   12          H           0.027209        0.9728     0.97279
   13          H           0.026573        0.9734     0.97343
   14          H           0.026573        0.9734     0.97343
   15          H           0.027209        0.9728     0.97279
   16          H           0.027022        0.9730     0.97298
   17          H           0.026277        0.9737     0.97372
   18          H           0.023404        0.9766     0.97660
 DIPOLE           X         Y         Z       TOTAL
 POINT-CHG.     0.000    -0.000     0.000     0.000
 HYBRID         0.000     0.000     0.000     0.000
 SUM            0.000    -0.000     0.000     0.000


          ATOMIC ORBITAL ELECTRON POPULATIONS

     Atom    s        px        py        pz   
    1  C   1.11219   0.96393   0.97190   1.01952
    2  C   1.08083   0.96320   0.98820   0.98296
    3  C   1.08488   0.96141   0.97712   1.00064
    4  C   1.08505   0.96231   0.97947   0.99689
    5  C   1.08505   0.96231   0.97947   0.99689
    6  C   1.08488   0.96141   0.97712   1.00064
    7  C   1.08083   0.96320   0.98820   0.98296
    8  C   1.11219   0.96393   0.97190   1.01952
    9  H   0.97660
   10  H   0.97372
   11  H   0.97298
   12  H   0.97279
   13  H   0.97343
   14  H   0.97343
   15  H   0.97279
   16  H   0.97298
   17  H   0.97372
   18  H   0.97660

 **********************
 *                    *
 * JOB ENDED NORMALLY *
 *                    *
 **********************



 TOTAL JOB TIME:            17.45 SECONDS

 == MOPAC DONE ==
