 *******************************************************************************
 ** Cite this program as: MOPAC2016, Version: 21.298M, James J. P. Stewart,   **
 **                           web-site: HTTP://OpenMOPAC.net.                 **
 *******************************************************************************
 **                                                                           **
 **                                MOPAC2016                                  **
 **                                                                           **
 *******************************************************************************

                              PM7 CALCULATION RESULTS

 *******************************************************************************
 *  CALCULATION DONE:                                Fri Oct 29 13:45:09 2021  *
 *  AIGIN      - GEOMETRY MUST BE IN GAUSSIAN FORMAT
 *  T=         - A TIME OF 172800.0 SECONDS REQUESTED
 *  DUMP=N     - RESTART FILE WRITTEN EVERY 7200.0 SECONDS REQUESTED
 *******************************************************************************



                    PARAMETER DEPENDENCE DATA

        REFERENCE ATOM      FUNCTION NO.    DEPENDENT ATOM(S)
            3                  1               4    5    6    7    8
            3                  2               4    5    6    7    8
            4                 14               5

             DESCRIPTIONS OF THE FUNCTIONS USED
 
AIGIN SYMMETRY
 Ethane

  ATOM    CHEMICAL      BOND LENGTH      BOND ANGLE     TWIST ANGLE 
 NUMBER    SYMBOL       (ANGSTROMS)      (DEGREES)       (DEGREES) 
   (I)                     NA:I           NB:NA:I       NC:NB:NA:I       NA    NB    NC 
     1       C          0.00000000       0.0000000       0.0000000        0     0     0
     2       C          1.50000000  *    0.0000000       0.0000000        1     0     0
     3       H          1.10000000  *  109.5000000  *    0.0000000        2     1     0
     4       H          1.10000000     109.5000000     120.0000000  *     2     1     3
     5       H          1.10000000     109.5000000    -120.0000000        2     1     3
     6       H          1.10000000     109.5000000      60.0000000        1     2     3
     7       H          1.10000000     109.5000000     180.0000000        1     2     3
     8       H          1.10000000     109.5000000     -60.0000000  *     1     2     3
 


          CARTESIAN COORDINATES 

    NO.       ATOM           X           Y           Z

     1         C          0.0000      0.0000      0.0000
     2         C          1.5000      0.0000      0.0000
     3         H          1.8672      1.0369      0.0000
     4         H          1.8672     -0.5185      0.8980
     5         H          1.8672     -0.5185     -0.8980
     6         H         -0.3672      0.5185     -0.8980
     7         H         -0.3672     -1.0369     -0.0000
     8         H         -0.3672      0.5185      0.8980

 General Reference for PM7:
 "Optimization of Parameters for Semiempirical Methods VI: More Modifications to the 
 NDDO Approximations and Re-optimization of Parameters", J. J. P. Stewart, J. Mol. Mod., 1:32, 19 (2013)
 https://link.springer.com/article/10.1007/s00894-012-1667-x

           Empirical Formula: C2 H6  =     8 atoms



      MOLECULAR POINT GROUP   :   D3d 


      RHF CALCULATION, NO. OF DOUBLY OCCUPIED LEVELS = 7


          Geometry optimization using EF

          DIAGONAL MATRIX USED AS START HESSIAN

 CYCLE:     1 TIME:   0.004 TIME LEFT:  2.00D  GRAD.:    59.242 HEAT: -16.99240
 CYCLE:     2 TIME:   0.000 TIME LEFT:  2.00D  GRAD.:    14.389 HEAT: -18.11634
 CYCLE:     3 TIME:   0.000 TIME LEFT:  2.00D  GRAD.:     9.349 HEAT: -18.18569
 CYCLE:     4 TIME:   0.004 TIME LEFT:  2.00D  GRAD.:     6.823 HEAT: -18.19103
 CYCLE:     5 TIME:   0.000 TIME LEFT:  2.00D  GRAD.:     0.297 HEAT: -18.19788

     GRADIENT =  0.29704 IS LESS THAN CUTOFF =  1.00000



 -------------------------------------------------------------------------------
 AIGIN SYMMETRY
 Ethane



     GEOMETRY OPTIMISED USING EIGENVECTOR FOLLOWING (EF).     
     SCF FIELD WAS ACHIEVED                                   


                              PM7 CALCULATION
                                                       MOPAC2016 (Version: 21.298M)
                                                       Fri Oct 29 13:45:09 2021




          FINAL HEAT OF FORMATION =        -18.19788 KCAL/MOL =     -76.13994 KJ/MOL


          COSMO AREA              =         75.93 SQUARE ANGSTROMS
          COSMO VOLUME            =         57.44 CUBIC ANGSTROMS

          GRADIENT NORM           =          0.29704          =       0.10502 PER ATOM
          IONIZATION POTENTIAL    =         11.966346 EV
          HOMO LUMO ENERGIES (EV) =        -11.966  4.511
          NO. OF FILLED LEVELS    =          7
          MOLECULAR WEIGHT        =         30.0694         POINT GROUP:  D3d 

          MOLECULAR DIMENSIONS (Angstroms)

            Atom       Atom       Distance
            H     7    H     3     3.09286
            H     8    H     5     2.90085
            H     4    H     6     2.80297


          SCF CALCULATIONS        =          8
 
          WALL-CLOCK TIME         =          0.012 SECONDS
          COMPUTATION TIME        =          0.014 SECONDS




  ATOM    CHEMICAL      BOND LENGTH      BOND ANGLE     TWIST ANGLE 
 NUMBER    SYMBOL       (ANGSTROMS)      (DEGREES)       (DEGREES) 
   (I)                     NA:I           NB:NA:I       NC:NB:NA:I       NA    NB    NC 
     1       C          0.00000000       0.0000000       0.0000000        0     0     0
     2       C          1.52380660  *    0.0000000       0.0000000        1     0     0
     3       H          1.09605509  *  111.4077055  *    0.0000000        2     1     0
     4       H          1.09605509     111.4077055     120.0020428  *     2     1     3
     5       H          1.09605509     111.4077055    -120.0020428        2     1     3
     6       H          1.09605509     111.4077055      60.0000000        1     2     3
     7       H          1.09605509     111.4077055     180.0000000        1     2     3
     8       H          1.09605509     111.4077055     -59.9983079  *     1     2     3

                             CARTESIAN COORDINATES

   1    C        0.000000000     0.000000000     0.000000000
   2    C        1.523806605     0.000000000     0.000000000
   3    H        1.923868899     1.020434671     0.000000000
   4    H        1.923868899    -0.510248843     0.883704156
   5    H        1.923868899    -0.510248843    -0.883704156
   6    H       -0.400062294     0.510217335    -0.883722348
   7    H       -0.400062294    -1.020434671    -0.000000000
   8    H       -0.400062294     0.510243434     0.883707279


           Empirical Formula: C2 H6  =     8 atoms



      MOLECULAR POINT GROUP   :   D3d 


                  EIGENVALUES  
 -27.11697 -21.37563 -15.10143 -15.10121 -13.17223 -11.96653 -11.96635   4.51095
   5.61801   5.61810   6.13824   6.13833   6.97880   7.10851


              NET ATOMIC CHARGES AND DIPOLE CONTRIBUTIONS

  ATOM NO.   TYPE          CHARGE      No. of ELECS.   s-Pop       p-Pop       
    1          C          -0.418496        4.4185     1.04752     3.37097
    2          C          -0.418496        4.4185     1.04752     3.37097
    3          H           0.139500        0.8605     0.86050
    4          H           0.139498        0.8605     0.86050
    5          H           0.139498        0.8605     0.86050
    6          H           0.139498        0.8605     0.86050
    7          H           0.139499        0.8605     0.86050
    8          H           0.139499        0.8605     0.86050
 DIPOLE           X         Y         Z       TOTAL
 POINT-CHG.     0.000    -0.000    -0.000     0.000
 HYBRID         0.000    -0.000    -0.000     0.000
 SUM            0.000    -0.000    -0.000     0.000


          ATOMIC ORBITAL ELECTRON POPULATIONS

     Atom    s        px        py        pz   
    1  C   1.04752   1.03144   1.16976   1.16977
    2  C   1.04752   1.03144   1.16976   1.16978
    3  H   0.86050
    4  H   0.86050
    5  H   0.86050
    6  H   0.86050
    7  H   0.86050
    8  H   0.86050

 **********************
 *                    *
 * JOB ENDED NORMALLY *
 *                    *
 **********************



 TOTAL JOB TIME:             0.02 SECONDS

 == MOPAC DONE ==
