 *******************************************************************************
 **                                                                           **
 **                              MOPAC v22.0.6                                **
 **                                                                           **
 *******************************************************************************
 **          Digital Object Identifier (DOI): 10.5281/zenodo.6511958          **
 **    Visit the DOI location for information on how to cite this program.    **
 *******************************************************************************

                              INDO CALCULATION RESULTS

 *******************************************************************************
 *  CALCULATION DONE:                                Fri Jul 14 12:16:18 2023  *
 *  INDO       - The INDO Hamiltonian to be used
 *  MRCI       -  Use multi-reference CI (specify ref dets using C.A.S.)
 *  1SCF       - DO 1 SCF AND THEN STOP 
 *  T=         - A TIME OF 172800.0 SECONDS REQUESTED
 *  DUMP=N     - RESTART FILE WRITTEN EVERY 7200.0 SECONDS REQUESTED
 *******************************************************************************
1SCF INDO MRCI
 comment1
 comment2
   ATOM   CHEMICAL          X               Y               Z
  NUMBER   SYMBOL      (ANGSTROMS)     (ANGSTROMS)     (ANGSTROMS)

     1       C         -0.67000000  *   0.00000000  *   0.00000000  *
     2       C          0.67000000  *   0.00000000  *   0.00000000  *
     3       H         -1.23000000  *  -0.93000000  *   0.00000000  *
     4       H         -1.23000000  *   0.93000000  *   0.00000000  *
     5       H          1.23000000  *  -0.93000000  *   0.00000000  *
     6       H          1.23000000  *   0.93000000  *   0.00000000  *



          CARTESIAN COORDINATES 

    NO.       ATOM           X           Y           Z

     1         C         -0.6700      0.0000      0.0000
     2         C          0.6700      0.0000      0.0000
     3         H         -1.2300     -0.9300      0.0000
     4         H         -1.2300      0.9300      0.0000
     5         H          1.2300     -0.9300      0.0000
     6         H          1.2300      0.9300      0.0000

           Empirical Formula: C2 H4  =     6 atoms



      MOLECULAR POINT GROUP   :   D2h 


      RHF CALCULATION, NO. OF DOUBLY OCCUPIED LEVELS = 6


 Summary of symmetry occupancy in each shell:

 SHELL     
    1    6
    v    6
 TOTAL  12


                     MOLECULAR ORBITALS 






    ROOT NO.    1           2           3           4           5           6

           -35.21189   -24.10511   -19.53313   -16.07585   -13.53540    -9.98566
  
  
  S  C   1   0.59643    -0.44544     0.00000     0.02664    -0.00000    -0.00000
 PX  C   1   0.16828     0.29758     0.00000     0.61383     0.00000    -0.00000
 PY  C   1  -0.00000     0.00000     0.51977    -0.00000    -0.45868    -0.00000
 PZ  C   1   0.00000    -0.00000     0.00000     0.00000     0.00000     0.70711
  
  S  C   2   0.59643     0.44544     0.00000     0.02664     0.00000     0.00000
 PX  C   2  -0.16828     0.29758    -0.00000    -0.61383     0.00000     0.00000
 PY  C   2  -0.00000    -0.00000     0.51977    -0.00000     0.45868    -0.00000
 PZ  C   2   0.00000    -0.00000     0.00000     0.00000     0.00000     0.70711
  
  S  H   3   0.24078    -0.32637    -0.33900    -0.24749     0.38053     0.00000
  
  S  H   4   0.24078    -0.32637     0.33900    -0.24749    -0.38053     0.00000
  
  S  H   5   0.24078     0.32637    -0.33900    -0.24749    -0.38053     0.00000
  
  S  H   6   0.24078     0.32637     0.33900    -0.24749     0.38053    -0.00000




    ROOT NO.    7           8           9          10          11          12

             1.35164     3.79059     5.06352     7.33858     7.93711    10.85409
  
  
  S  C   1  -0.00000     0.52298     0.37890     0.00000    -0.00000     0.16755
 PX  C   1   0.00000     0.04854    -0.30805    -0.00000    -0.00000     0.63960
 PY  C   1  -0.00000    -0.00000    -0.00000     0.47941    -0.53815    -0.00000
 PZ  C   1  -0.70711    -0.00000    -0.00000    -0.00000    -0.00000     0.00000
  
  S  C   2   0.00000    -0.52298     0.37890     0.00000     0.00000    -0.16755
 PX  C   2  -0.00000     0.04854     0.30805     0.00000    -0.00000     0.63960
 PY  C   2  -0.00000     0.00000    -0.00000     0.47941     0.53815     0.00000
 PZ  C   2   0.70711     0.00000     0.00000     0.00000    -0.00000    -0.00000
  
  S  H   3   0.00000    -0.33476    -0.36163     0.36753    -0.32434     0.17725
  
  S  H   4   0.00000    -0.33476    -0.36163    -0.36753     0.32434     0.17725
  
  S  H   5   0.00000     0.33476    -0.36163     0.36753     0.32434    -0.17725
  
  S  H   6  -0.00000     0.33476    -0.36163    -0.36753    -0.32434    -0.17725


 Reference determinate nber   1 is ALPHA 1 -   6
 CAS excitations amongst orbitals:   6   7
 SINGLE excitations FROM orbs   1 to   6 INTO orbs   7 to  12


 CI excitations=  123:        =123
 The lowest  123 spin-adapted configurations of multiplicity=  1
     sym   eV   cm**-1 -dets- dipole oscilator X FRAG ....Excitations named from first reference determinate
                       tot  #  Debye  strength

   1     -0.000      0.  1  1  0.0000 0.000000 0  0 (            )->(               )
   2      7.706  62149.  2  1  0.0000 0.000000 1  1 (   6        )->(   8           )
   3      8.211  66230.  2  1  0.0000 0.000000 1  1 (   5        )->(   7           )
   4      8.301  66952.  2  1  0.0000 0.652022 1  1 (   6        )->(   7           )
   5      8.716  70299.  2  1  0.0000 0.096743 1  1 (   6        )->(   9           )
   6     10.095  81424.  2  1  0.0000 0.000000 1  1 (   4        )->(   7           )
   7     10.572  85269.  2  1  0.0000 0.000000 1  1 (   6        )->(  10           )
   8     10.738  86611.  1  1  0.0000 0.000000 2  0 (   6   6    )->(   7   7       )
   9     10.935  88195.  2  1  0.0000 0.000000 1  1 (   6        )->(  11           )
  10     12.222  98581.  2  1  0.0000 0.131938 1  1 (   5        )->(   8           )
  11     13.075 105455.  2  1  0.0000 0.000000 2  1 (   6   6    )->(   7   8       )
  12     13.331 107520.  2  1  0.0000 0.000000 1  1 (   5        )->(   9           )
  13     13.359 107745.  2  1  0.0000 0.000000 1  1 (   6        )->(  12           )
  14     13.581 109535.  2  1  0.0000 0.000000 2  1 (   5   6    )->(   7   7       )
  15     13.973 112704.  2  1  0.0000 0.000000 1  1 (   3        )->(   7           )
  16     14.085 113604.  2  1  0.0000 0.000000 2  1 (   6   6    )->(   7   9       )
  17     14.449 116540.  2  1  0.0000 0.067353 1  1 (   4        )->(   8           )
  18     14.566 117485.  6  1  0.0000 0.000000 2  1 (   5   6    )->(   7   8       )
  19     15.405 124249.  6  1  0.0000 0.000000 2  1 (   5   6    )->(   7   9       )
  20     15.464 124729.  2  1  0.0000 0.000000 2  1 (   4   6    )->(   7   7       )
  21     15.669 126382.  2  1  0.0000 0.000000 1  1 (   4        )->(   9           )
  22     15.873 128023.  2  1  0.0000 0.429924 1  1 (   5        )->(  10           )
  23     15.941 128574.  2  1  0.0000 0.000000 2  1 (   6   6    )->(   7  10       )
  24     16.304 131501.  2  1  0.0000 0.000000 2  1 (   6   6    )->(   7  11       )
  25     16.572 133661.  2  1  0.0000 0.000000 1  1 (   5        )->(  11           )
  26     16.908 136371.  6  1  0.0000 0.000000 2  1 (   4   6    )->(   7   8       )
  27     17.093 137864.  6  1  0.0000 0.000000 2  1 (   5   6    )->(   7  10       )
  28     17.312 139631.  2  1  0.0000 0.371881 1  1 (   4        )->(  10           )
  29     17.572 141731.  2  1  0.0000 0.000000 1  1 (   4        )->(  11           )
  30     17.660 142435.  6  1  0.0000 0.000000 2  1 (   5   6    )->(   7  11       )
  31     17.813 143670.  6  1  0.0000 0.000000 2  1 (   4   6    )->(   7   9       )
  32     17.889 144282.  2  1  0.0000 0.000000 1  1 (   3        )->(   8           )
  33     18.090 145906.  2  1  0.0000 0.330564 1  1 (   5        )->(  12           )
  34     18.728 151050.  2  1  0.0000 0.000000 2  1 (   6   6    )->(   7  12       )
  35     19.105 154095.  2  1  0.0000 0.293087 1  1 (   2        )->(   7           )
  36     19.262 155363.  2  1  0.0000 0.247350 1  1 (   3        )->(   9           )
  37     19.343 156010.  2  1  0.0000 0.000000 2  1 (   3   6    )->(   7   7       )
  38     19.684 158765.  6  1  0.0000 0.000000 2  1 (   4   6    )->(   7  10       )
  39     20.145 162480.  6  1  0.0000 0.000000 2  1 (   4   6    )->(   7  11       )
  40     20.495 165307.  6  1  0.0000 0.000000 2  1 (   3   6    )->(   7   8       )
  41     20.523 165532.  6  2  0.0000 0.000000 2  1 (   5   6    )->(   7   8       )
  42     20.792 167697.  6  1  0.0000 0.000000 2  1 (   5   6    )->(   7  12       )
  43     21.369 172357.  6  1  0.0000 0.000000 2  1 (   3   6    )->(   7   9       )
  44     21.632 174471.  6  2  0.0000 0.000000 2  1 (   5   6    )->(   7   9       )
  45     21.989 177354.  2  1  0.0000 0.000000 1  1 (   3        )->(  10           )
  46     22.318 180006.  2  1  0.0000 0.107783 1  1 (   3        )->(  11           )
  47     22.445 181035.  2  1  0.0000 0.162722 1  1 (   4        )->(  12           )
  48     22.447 181044.  6  1  0.0000 0.000000 2  1 (   4   6    )->(   7  12       )
  49     22.610 182366.  2  1  0.0000 0.000000 1  1 (   2        )->(   8           )
  50     22.750 183492.  6  2  0.0000 0.000000 2  1 (   4   6    )->(   7   8       )
  51     22.961 185192.  2  1  0.0000 0.000000 3  1 (   5   6   6)->(   7   7   8   )
  52     23.041 185837.  6  1  0.0000 0.000000 2  1 (   3   6    )->(   7  10       )
  53     23.552 189961.  6  1  0.0000 0.000000 2  1 (   3   6    )->(   7  11       )
  54     23.807 192016.  2  1  0.0000 0.000000 1  1 (   3        )->(  12           )
  55     23.970 193334.  6  2  0.0000 0.000000 2  1 (   4   6    )->(   7   9       )
  56     24.069 194131.  2  1  0.0000 0.000000 3  1 (   5   6   6)->(   7   7   9   )
  57     24.174 194975.  6  2  0.0000 0.000000 2  1 (   5   6    )->(   7  10       )
  58     24.218 195329.  2  1  0.0000 0.000046 1  1 (   2        )->(   9           )
  59     24.474 197400.  2  1  0.0000 0.000000 2  1 (   2   6    )->(   7   7       )
  60     24.873 200612.  6  2  0.0000 0.000000 2  1 (   5   6    )->(   7  11       )
  61     25.188 203151.  2  1  0.0000 0.000000 3  1 (   4   6   6)->(   7   7   8   )
  62     25.613 206582.  6  2  0.0000 0.000000 2  1 (   4   6    )->(   7  10       )
  63     25.807 208147.  6  1  0.0000 0.000000 2  1 (   2   6    )->(   7   8       )
  64     25.873 208683.  6  2  0.0000 0.000000 2  1 (   4   6    )->(   7  11       )
  65     25.960 209383.  2  1  0.0000 0.000000 1  1 (   2        )->(  10           )
  66     26.190 211234.  6  2  0.0000 0.000000 2  1 (   3   6    )->(   7   8       )
  67     26.313 212232.  6  1  0.0000 0.000000 2  1 (   2   6    )->(   7   9       )
  68     26.391 212858.  6  2  0.0000 0.000000 2  1 (   5   6    )->(   7  12       )
  69     26.408 212993.  2  1  0.0000 0.000000 3  1 (   4   6   6)->(   7   7   9   )
  70     26.481 213587.  2  1  0.0000 0.131452 1  1 (   2        )->(  11           )
  71     26.603 214566.  6  1  0.0000 0.000000 2  1 (   3   6    )->(   7  12       )
  72     26.611 214634.  2  1  0.0000 0.000000 3  1 (   5   6   6)->(   7   7  10   )
  73     27.310 220272.  2  1  0.0000 0.000000 3  1 (   5   6   6)->(   7   7  11   )
  74     27.563 222314.  6  2  0.0000 0.000000 2  1 (   3   6    )->(   7   9       )
  75     28.050 226242.  2  1  0.0000 0.000000 3  1 (   4   6   6)->(   7   7  10   )
  76     28.311 228343.  2  1  0.0000 0.000000 3  1 (   4   6   6)->(   7   7  11   )
  77     28.406 229113.  6  1  0.0000 0.000000 2  1 (   2   6    )->(   7  10       )
  78     28.627 230893.  2  1  0.0000 0.000000 3  1 (   3   6   6)->(   7   7   8   )
  79     28.828 232518.  2  1  0.0000 0.000000 3  1 (   5   6   6)->(   7   7  12   )
  80     28.916 233224.  2  1  0.0000 0.000000 1  1 (   2        )->(  12           )
  81     28.931 233342.  6  1  0.0000 0.000000 2  1 (   2   6    )->(   7  11       )
  82     30.001 241974.  2  1  0.0000 0.000000 3  1 (   3   6   6)->(   7   7   9   )
  83     30.290 244305.  6  2  0.0000 0.000000 2  1 (   3   6    )->(   7  10       )
  84     30.326 244594.  2  1  0.0000 0.000000 1  1 (   1        )->(   7           )
  85     30.619 246958.  6  2  0.0000 0.000000 2  1 (   3   6    )->(   7  11       )
  86     30.746 247987.  6  2  0.0000 0.000000 2  1 (   4   6    )->(   7  12       )
  87     30.911 249318.  6  2  0.0000 0.000000 2  1 (   2   6    )->(   7   8       )
  88     31.944 257648.  6  1  0.0000 0.000000 2  1 (   2   6    )->(   7  12       )
  89     32.108 258968.  6  2  0.0000 0.000000 2  1 (   3   6    )->(   7  12       )
  90     32.519 262281.  6  2  0.0000 0.000000 2  1 (   2   6    )->(   7   9       )
  91     32.727 263965.  2  1  0.0000 0.000000 3  1 (   3   6   6)->(   7   7  10   )
  92     33.056 266618.  2  1  0.0000 0.000000 3  1 (   3   6   6)->(   7   7  11   )
  93     33.184 267646.  2  1  0.0000 0.000000 3  1 (   4   6   6)->(   7   7  12   )
  94     33.349 268977.  2  1  0.0000 0.000000 3  1 (   2   6   6)->(   7   7   8   )
  95     33.808 272683.  2  1  0.0000 0.035628 1  1 (   1        )->(   8           )
  96     34.261 276335.  6  2  0.0000 0.000000 2  1 (   2   6    )->(   7  10       )
  97     34.545 278627.  2  1  0.0000 0.000000 3  1 (   3   6   6)->(   7   7  12   )
  98     34.548 278649.  2  1  0.0000 0.000000 1  1 (   1        )->(   9           )
  99     34.782 280539.  6  2  0.0000 0.000000 2  1 (   2   6    )->(   7  11       )
 100     34.956 281940.  2  1  0.0000 0.000000 3  1 (   2   6   6)->(   7   7   9   )
 101     35.695 287899.  2  1  0.0000 0.000000 2  1 (   1   6    )->(   7   7       )
 102     36.699 295994.  2  1  0.0000 0.000000 3  1 (   2   6   6)->(   7   7  10   )
 103     36.928 297847.  2  1  0.0000 0.023580 1  1 (   1        )->(  10           )
 104     37.217 300175.  6  2  0.0000 0.000000 2  1 (   2   6    )->(   7  12       )
 105     37.220 300198.  2  1  0.0000 0.000000 3  1 (   2   6   6)->(   7   7  11   )
 106     37.247 300415.  6  1  0.0000 0.000000 2  1 (   1   6    )->(   7   8       )
 107     37.328 301072.  2  1  0.0000 0.000000 1  1 (   1        )->(  11           )
 108     38.421 309888.  6  1  0.0000 0.000000 2  1 (   1   6    )->(   7   9       )
 109     39.654 319835.  2  1  0.0000 0.000000 3  1 (   2   6   6)->(   7   7  12   )
 110     40.008 322684.  6  1  0.0000 0.000000 2  1 (   1   6    )->(   7  10       )
 111     40.448 326233.  6  1  0.0000 0.000000 2  1 (   1   6    )->(   7  11       )
 112     41.059 331165.  2  1  0.0000 0.076217 1  1 (   1        )->(  12           )
 113     42.109 339634.  6  2  0.0000 0.000000 2  1 (   1   6    )->(   7   8       )
 114     42.849 345598.  6  1  0.0000 0.000000 2  1 (   1   6    )->(   7  12       )
 115     42.849 345601.  6  2  0.0000 0.000000 2  1 (   1   6    )->(   7   9       )
 116     44.547 359294.  2  1  0.0000 0.000000 3  1 (   1   6   6)->(   7   7   8   )
 117     45.229 364799.  6  2  0.0000 0.000000 2  1 (   1   6    )->(   7  10       )
 118     45.286 365260.  2  1  0.0000 0.000000 3  1 (   1   6   6)->(   7   7   9   )
 119     45.629 368024.  6  2  0.0000 0.000000 2  1 (   1   6    )->(   7  11       )
 120     47.667 384458.  2  1  0.0000 0.000000 3  1 (   1   6   6)->(   7   7  10   )
 121     48.067 387684.  2  1  0.0000 0.000000 3  1 (   1   6   6)->(   7   7  11   )
 122     49.360 398117.  6  2  0.0000 0.000000 2  1 (   1   6    )->(   7  12       )
 123     51.797 417776.  2  1  0.0000 0.000000 3  1 (   1   6   6)->(   7   7  12   )

 Depression of ground-state after CI=      -9903. cm**-1 Energy=  -378.9915513 eV
 Dipole moment=  0.000000 -0.000000 -0.000000 tot=  0.000000 Debyes


  CI trans.  energy frequency wavelength oscillator--------- polarization---------  dipole  ------ components-----
 st.  symm.    eV      cm - 1       nm      strength       x          y         z       moment     x       y       z 

   2      7.8110419    63000.    158.73  0.344443   1.000000   0.000000  -0.000000  0.000000   0.000   0.000   0.000
   3      8.3657632    67475.    148.20  0.000000                                   0.000000   0.000   0.000  -0.000
   4      9.1453241    73762.    135.57  0.078784  -0.000000   0.000000  -1.000000  0.000000   0.000  -0.000   0.000
   5      9.1455624    73764.    135.57  0.000000                                   0.000000  -0.000   0.000  -0.000
   6     11.1995884    90331.    110.70  0.000000                                   0.000000  -0.000   0.000  -0.000
   7     11.2698289    90898.    110.01  0.000000                                   0.000000  -0.000   0.000  -0.000
   8     11.3019012    91156.    109.70  0.000000                                   0.000000  -0.000   0.000   0.000
   9     11.5202070    92917.    107.62  0.000000                                   0.000000   0.000   0.000   0.000
  10     12.1384460    97903.    102.14  0.068917   0.000000   1.000000  -0.000000  0.000000  -0.000   0.000   0.000
  11     13.1223347   105839.     94.48  0.000000                                   0.000000   0.000   0.000   0.000
  12     13.2479851   106852.     93.59  0.000000                                   0.000000   0.000   0.000  -0.000
  13     14.1721786   114307.     87.48  0.000000                                   0.000000   0.000   0.000   0.000
  14     14.4970332   116927.     85.52  0.019656   1.000000   0.000000  -0.000000  0.000000  -0.000   0.000   0.000
  15     14.9106414   120263.     83.15  0.008160   0.000000  -0.000000   1.000000  0.000000  -0.000   0.000  -0.000
  16     15.1368005   122087.     81.91  0.000000                                   0.000000   0.000   0.000   0.000
  17     15.4600491   124694.     80.20  0.000000                                   0.000000  -0.000   0.000  -0.000
  18     15.7170981   126767.     78.88  0.466859   1.000000  -0.000000  -0.000000  0.000000  -0.000   0.000   0.000
  19     16.0890467   129767.     77.06  0.000151   0.000000  -1.000000   0.000000  0.000000   0.000   0.000   0.000
  20     16.2346090   130941.     76.37  0.000000                                   0.000000   0.000   0.000   0.000
  21     16.3287496   131701.     75.93  0.027799  -0.000000   0.000000  -1.000000  0.000000   0.000   0.000   0.000
  22     16.5524985   133505.     74.90  0.000000                                   0.000000   0.000   0.000  -0.000
  23     16.7949930   135461.     73.82  0.000000                                   0.000000  -0.000   0.000  -0.000
  24     17.1961099   138696.     72.10  0.090935  -0.000000  -1.000000   0.000000  0.000000  -0.000   0.000   0.000
  25     17.2059410   138776.     72.06  0.000000                                   0.000000   0.000   0.000  -0.000
  26     17.4873423   141045.     70.90  0.000000                                   0.000000  -0.000   0.000  -0.000
  27     17.7116837   142855.     70.00  0.000000                                   0.000000   0.000   0.000   0.000
  28     17.7779782   143389.     69.74  0.000000                                   0.000000  -0.000   0.000  -0.000
  29     17.8782848   144198.     69.35  0.004045  -1.000000   0.000000   0.000000  0.000000   0.000   0.000   0.000
  30     18.0725495   145765.     68.60  0.000000                                   0.000000   0.000   0.000  -0.000
  31     18.0784534   145813.     68.58  0.086443   0.000000  -1.000000  -0.000000  0.000000   0.000   0.000   0.000
  32     18.3838952   148276.     67.44  0.000000                                   0.000000  -0.000   0.000  -0.000
  33     18.7030398   150851.     66.29  0.777218  -0.000000  -1.000000  -0.000000  0.000000   0.000   0.000   0.000
  34     19.1884592   154766.     64.61  0.000706   1.000000  -0.000000   0.000000  0.000000   0.000   0.000   0.000
  35     19.9963723   161282.     62.00  0.014079  -0.000000   0.000000  -1.000000  0.000000   0.000   0.000  -0.000
  36     20.5593665   165823.     60.31  0.277862   0.000000   0.000000  -1.000000  0.000000   0.000   0.000   0.000
  37     20.5604994   165832.     60.30  0.000000                                   0.000000  -0.000   0.000  -0.000
  38     20.6486727   166543.     60.04  0.000000                                   0.000000  -0.000   0.000  -0.000
  39     20.6650181   166675.     60.00  0.216857  -1.000000   0.000000  -0.000000  0.000000   0.000   0.000   0.000
  40     20.8532224   168193.     59.46  0.000000                                   0.000000   0.000   0.000   0.000
  41     21.0409773   169707.     58.92  0.000000                                   0.000000  -0.000   0.000  -0.000
  42     21.1645201   170704.     58.58  0.001294   0.000000  -1.000000  -0.000000  0.000000   0.000   0.000  -0.000
  43     21.5524160   173832.     57.53  0.002287   0.000000   1.000000   0.000000  0.000000   0.000   0.000  -0.000
  44     21.8277662   176053.     56.80  0.000000                                   0.000000   0.000   0.000   0.000
  45     21.8426429   176173.     56.76  0.032170   1.000000   0.000000  -0.000000  0.000000   0.000   0.000  -0.000
  46     22.4069796   180725.     55.33  0.000000                                   0.000000   0.000   0.000   0.000
  47     22.6396089   182601.     54.76  0.008541   0.000000   1.000000   0.000000  0.000000  -0.000   0.000  -0.000
  48     23.0848558   186192.     53.71  0.000000                                   0.000000  -0.000   0.000  -0.000
  49     23.4182563   188881.     52.94  0.000000                                   0.000000   0.000   0.000  -0.000
  50     23.4713219   189309.     52.82  0.000000                                   0.000000   0.000  -0.000   0.000
  51     23.7050279   191194.     52.30  0.000000                                   0.000000  -0.000   0.000   0.000
  52     24.0103909   193657.     51.64  0.020209  -1.000000  -0.000000  -0.000000  0.000000   0.000  -0.000   0.000
  53     24.2113393   195278.     51.21  0.000542   0.000000   1.000000   0.000000  0.000000  -0.000   0.000  -0.000
  54     24.3428305   196339.     50.93  0.004665   1.000000   0.000000  -0.000000  0.000000  -0.000   0.000  -0.000
  55     24.5423163   197948.     50.52  0.000000                                   0.000000   0.000   0.000  -0.000
  56     24.5670294   198147.     50.47  0.000000                                   0.000000  -0.000   0.000  -0.000
  57     24.7461022   199591.     50.10  0.000046  -1.000000   0.000000   0.000000  0.000000  -0.000   0.000   0.000
  58     24.8499484   200429.     49.89  0.111343  -0.000000  -1.000000  -0.000000  0.000000  -0.000   0.000  -0.000
  59     25.2065826   203305.     49.19  0.000000                                   0.000000   0.000   0.000  -0.000
  60     25.2880560   203962.     49.03  0.000000                                   0.000000   0.000   0.000  -0.000
  61     25.3478687   204445.     48.91  0.000000                                   0.000000   0.000   0.000  -0.000
  62     25.6376890   206782.     48.36  0.000097  -1.000000   0.000000  -0.000000  0.000000   0.000   0.000  -0.000
  63     26.7579061   215818.     46.34  0.000000                                   0.000000  -0.000   0.000  -0.000
  64     27.2175288   219525.     45.55  0.104069   0.000000   1.000000   0.000000  0.000000  -0.000   0.000  -0.000
  65     27.2616201   219880.     45.48  0.000183  -1.000000  -0.000000   0.000000  0.000000  -0.000   0.000  -0.000
  66     27.3578577   220657.     45.32  0.000413  -1.000000   0.000000   0.000000  0.000000  -0.000   0.000  -0.000
  67     27.4969591   221778.     45.09  0.000000                                   0.000000   0.000   0.000  -0.000
  68     27.5813725   222459.     44.95  0.000000                                   0.000000   0.000   0.000  -0.000
  69     27.8642559   224741.     44.50  0.000000                                   0.000000   0.000  -0.000   0.000
  70     27.9030970   225054.     44.43  0.000141  -0.000000   1.000000   0.000000  0.000000   0.000   0.000  -0.000
  71     28.1866879   227342.     43.99  0.000000                                   0.000000  -0.000   0.000  -0.000
  72     28.3645083   228776.     43.71  0.000832  -0.000000   1.000000   0.000000  0.000000  -0.000   0.000   0.000
  73     29.1141579   234822.     42.59  0.000715  -1.000000   0.000000   0.000000  0.000000  -0.000  -0.000  -0.000
  74     29.1439788   235063.     42.54  0.000000                                   0.000000   0.000   0.000  -0.000
  75     29.3384732   236631.     42.26  0.000100   0.000000   1.000000   0.000000  0.000000   0.000   0.000  -0.000
  76     29.3480135   236708.     42.25  0.000000                                   0.000000   0.000  -0.000  -0.000
  77     29.6344759   239019.     41.84  0.003791   0.000000   1.000000  -0.000000  0.000000  -0.000   0.000  -0.000
  78     30.1181209   242920.     41.17  0.000000                                   0.000000   0.000   0.000  -0.000
  79     30.8517374   248837.     40.19  0.004565   1.000000   0.000000  -0.000000  0.000000   0.000   0.000  -0.000
  80     31.0580338   250501.     39.92  0.003226   0.000000   1.000000  -0.000000  0.000000  -0.000   0.000  -0.000
  81     31.2317102   251901.     39.70  0.000000                                   0.000000   0.000   0.000  -0.000
  82     31.2395174   251964.     39.69  0.000000                                   0.000000   0.000   0.000  -0.000
  83     32.1882384   259616.     38.52  0.003399   1.000000  -0.000000  -0.000000  0.000000   0.000   0.000  -0.000
  84     32.2325803   259974.     38.47  0.000000                                   0.000000  -0.000   0.000  -0.000
  85     32.5408463   262460.     38.10  0.005939   0.000000   1.000000   0.000000  0.000000  -0.000   0.000  -0.000
  86     32.8517962   264968.     37.74  0.000000                                   0.000000   0.000   0.000  -0.000
  87     33.1240902   267164.     37.43  0.002734   1.000000  -0.000000  -0.000000  0.000000  -0.000   0.000   0.000
  88     33.1429840   267317.     37.41  0.000000                                   0.000000  -0.000   0.000  -0.000
  89     33.2787524   268412.     37.26  0.000000                                   0.000000   0.000   0.000  -0.000
  90     34.1591544   275513.     36.30  0.000426   1.000000   0.000000  -0.000000  0.000000   0.000   0.000  -0.000
  91     34.2629079   276350.     36.19  0.007488   0.000000   1.000000  -0.000000  0.000000   0.000   0.000  -0.000
  92     34.3280962   276875.     36.12  0.000000                                   0.000000  -0.000   0.000  -0.000
  93     34.7975439   280662.     35.63  0.036372   1.000000   0.000000  -0.000000  0.000000  -0.000   0.000  -0.000
  94     35.1333022   283370.     35.29  0.000000                                   0.000000   0.000   0.000  -0.000
  95     36.5299142   294634.     33.94  0.001035  -0.000000   1.000000   0.000000  0.000000  -0.000  -0.000  -0.000
  96     36.6854425   295889.     33.80  0.000000                                   0.000000  -0.000   0.000  -0.000
  97     36.7638008   296521.     33.72  0.000158  -1.000000   0.000000   0.000000  0.000000   0.000   0.000  -0.000
  98     37.2092403   300114.     33.32  0.006813  -0.000000  -0.000000   1.000000  0.000000   0.000   0.000  -0.000
  99     37.6224010   303446.     32.95  0.046262   0.000000   1.000000   0.000000  0.000000  -0.000   0.000  -0.000
 100     37.9101274   305767.     32.70  0.000000                                   0.000000   0.000   0.000  -0.000
 101     37.9473817   306067.     32.67  0.000000                                   0.000000   0.000   0.000  -0.000
 102     38.0867487   307191.     32.55  0.000000                                   0.000000  -0.000   0.000   0.000
 103     38.5962083   311300.     32.12  0.001034  -1.000000   0.000000  -0.000000  0.000000   0.000   0.000  -0.000
 104     38.9879018   314459.     31.80  0.000000                                   0.000000  -0.000   0.000   0.000
 105     39.8548531   321452.     31.11  0.005328   1.000000  -0.000000  -0.000000  0.000000  -0.000  -0.000  -0.000
 106     40.1412083   323762.     30.89  0.003530   1.000000   0.000000  -0.000000  0.000000   0.000   0.000   0.000
 107     40.5638151   327170.     30.57  0.000000                                   0.000000  -0.000   0.000  -0.000
 108     40.7158230   328396.     30.45  0.000109   0.000000  -1.000000   0.000000  0.000000   0.000   0.000  -0.000
 109     41.6258585   335736.     29.79  0.000000                                   0.000000  -0.000   0.000  -0.000
 110     41.7434294   336684.     29.70  0.000000                                   0.000000   0.000   0.000  -0.000
 111     42.0471582   339134.     29.49  0.000294   0.000000  -1.000000  -0.000000  0.000000   0.000   0.000  -0.000
 112     42.0797275   339397.     29.46  0.065414  -1.000000  -0.000000   0.000000  0.000000   0.000   0.000  -0.000
 113     43.6977211   352447.     28.37  0.000000                                   0.000000   0.000   0.000  -0.000
 114     43.8907913   354004.     28.25  0.015320  -1.000000  -0.000000   0.000000  0.000000  -0.000   0.000  -0.000
 115     44.3784459   357937.     27.94  0.000000                                   0.000000   0.000   0.000  -0.000
 116     45.7173385   368736.     27.12  0.000000                                   0.000000  -0.000   0.000  -0.000
 117     45.8816536   370061.     27.02  0.000048   0.000000  -1.000000   0.000000  0.000000   0.000   0.000  -0.000
 118     48.4110959   390463.     25.61  0.000000                                   0.000000  -0.000   0.000  -0.000
 119     48.5128902   391284.     25.56  0.000274  -1.000000   0.000000   0.000000  0.000000   0.000   0.000  -0.000
 120     51.9445734   418962.     23.87  0.000046  -0.000000   1.000000  -0.000000  0.000000  -0.000  -0.000  -0.000
 121     52.1140241   420329.     23.79  0.000000                                   0.000000   0.000   0.000  -0.000
 122     52.1185089   420365.     23.79  0.000000                                   0.000000  -0.000   0.000  -0.000
 123     54.7253535   441391.     22.66  0.001258   1.000000  -0.000000  -0.000000  0.000000   0.000   0.000  -0.000

 Polarizability (au  ) xx=   18.56 xy=    0.00 yy=    8.14 xz=   -0.00 yz=   -0.00 zz=    3.96
 Polarizability (A**3) xx=    2.75 xy=    0.00 yy=    1.21 xz=   -0.00 yz=   -0.00 zz=    0.59


 Major CI contributions to CI states

State    1  0.0000     CI coeff  CI percent
    Config       1   0.97131841  0.94345945
    Config       8  -0.20552588  0.04224089
    Config      86   0.07199818  0.00518374
    Config     106   0.04046814  0.00163767
 Total coeff printed             0.99252174
  
State    2  7.8110     CI coeff  CI percent
    Config       4  -0.96570264  0.93258158
    Config      17   0.10083544  0.01016779
    Config      22   0.06211146  0.00385783
    Config      46   0.07332387  0.00537639
    Config      47  -0.15777217  0.02489206
    Config      58   0.05020910  0.00252095
    Config      92   0.04484440  0.00201102
    Config      93  -0.09173161  0.00841469
    Config      95  -0.04880732  0.00238215
    Config     112  -0.04319306  0.00186564
 Total coeff printed             0.99407011
  
State    3  8.3658     CI coeff  CI percent
    Config       2  -0.96247063  0.92634972
    Config      16   0.26541827  0.07044686
    Config      59  -0.04073029  0.00165896
 Total coeff printed             0.99845553
  
State    4  9.1453     CI coeff  CI percent
    Config       5  -0.93323694  0.87093118
    Config      11   0.34669170  0.12019514
    Config      34  -0.06471281  0.00418775
    Config      35   0.05956235  0.00354767
 Total coeff printed             0.99886174
  
State    5  9.1456     CI coeff  CI percent
    Config       3   0.98436242  0.96896937
    Config       7   0.07653925  0.00585826
    Config      37  -0.15467893  0.02392557
 Total coeff printed             0.99875320
  
State    6 11.1996     CI coeff  CI percent
    Config       6   0.99319650  0.98643929
    Config      13   0.07402024  0.00547900
    Config      59   0.08069326  0.00651140
 Total coeff printed             0.99842969
  
State    7 11.2698     CI coeff  CI percent
    Config       3   0.08474405  0.00718155
    Config       7  -0.95625836  0.91443005
    Config      24  -0.27997056  0.07838351
 Total coeff printed             0.99999512
  
State    8 11.3019     CI coeff  CI percent
    Config       1   0.18387117  0.03380861
    Config       8   0.95354697  0.90925183
    Config      50   0.08409301  0.00707163
    Config      57  -0.05486604  0.00301028
    Config      67   0.04221926  0.00178247
    Config      85  -0.07643156  0.00584178
    Config      86   0.16058148  0.02578641
    Config      90  -0.05365033  0.00287836
    Config     113   0.05482293  0.00300555
    Config     122   0.05004150  0.00250415
 Total coeff printed             0.99494108
  
State    9 11.5202     CI coeff  CI percent
    Config       9  -0.93931132  0.88230576
    Config      14   0.10360490  0.01073398
    Config      15  -0.10011497  0.01002301
    Config      23  -0.31134749  0.09693726
 Total coeff printed             1.00000000
  
State   10 12.1384     CI coeff  CI percent
    Config      10  -0.94664299  0.89613294
    Config      19   0.14685476  0.02156632
    Config      28  -0.06548890  0.00428880
    Config      33   0.05694919  0.00324321
    Config      36   0.04168342  0.00173751
    Config      44  -0.12501844  0.01562961
    Config      51  -0.20057490  0.04023029
    Config      66  -0.11463710  0.01314166
    Config      70   0.04314859  0.00186180
 Total coeff printed             0.99783214
  
State   11 13.1223     CI coeff  CI percent
    Config      12  -0.92284140  0.85163626
    Config      18  -0.24729178  0.06115323
    Config      29   0.06801195  0.00462562
    Config      32  -0.04607322  0.00212274
    Config      41   0.16039109  0.02572530
    Config      56   0.18681574  0.03490012
    Config      68  -0.05483063  0.00300640
    Config      74   0.11084326  0.01228623
 Total coeff printed             0.99545590
  
State   12 13.2480     CI coeff  CI percent
    Config       9   0.14409032  0.02076202
    Config      14   0.73765446  0.54413410
    Config      15  -0.65923218  0.43458707
 Total coeff printed             0.99948320
  
State   13 14.1722     CI coeff  CI percent
    Config       2  -0.12262657  0.01503728
    Config       6  -0.08274825  0.00684727
    Config      13   0.88823453  0.78896057
    Config      16  -0.43485904  0.18910239
 Total coeff printed             0.99994751
  
State   14 14.4970     CI coeff  CI percent
    Config       4  -0.08153129  0.00664735
    Config      17  -0.92265195  0.85128662
    Config      22  -0.19581986  0.03834542
    Config      31  -0.14130912  0.01996827
    Config      47  -0.09908437  0.00981771
    Config      55   0.12896572  0.01663216
    Config      61   0.21499691  0.04622367
    Config      72   0.04231193  0.00179030
    Config      87  -0.06569176  0.00431541
    Config     112  -0.04279450  0.00183137
 Total coeff printed             0.99685828
  
State   15 14.9106     CI coeff  CI percent
    Config       5   0.34451867  0.11869311
    Config      11   0.93049264  0.86581655
    Config      34   0.09518432  0.00906005
    Config      35   0.07326263  0.00536741
 Total coeff printed             0.99893713
  
State   16 15.1368     CI coeff  CI percent
    Config      21  -0.82064968  0.67346590
    Config      25   0.46211893  0.21355390
    Config      26  -0.19048718  0.03628537
    Config      45   0.04739442  0.00224623
    Config      50  -0.13063864  0.01706645
    Config      57   0.08238108  0.00678664
    Config      69   0.17880193  0.03197013
    Config      73   0.09113093  0.00830485
    Config      85  -0.04634050  0.00214744
    Config      86   0.05575249  0.00310834
    Config      90   0.05416061  0.00293337
 Total coeff printed             0.99786863
  
State   17 15.4600     CI coeff  CI percent
    Config      12  -0.23151229  0.05359794
    Config      18   0.93090172  0.86657802
    Config      38   0.08481808  0.00719411
    Config      41   0.08038528  0.00646179
    Config      42   0.07773420  0.00604261
    Config      43  -0.22231665  0.04942469
    Config      74   0.04504641  0.00202918
    Config      81  -0.06330519  0.00400755
 Total coeff printed             0.99533589
  
State   18 15.7171     CI coeff  CI percent
    Config      17  -0.20170993  0.04068689
    Config      22   0.92497371  0.85557636
    Config      30  -0.06561206  0.00430494
    Config      31  -0.05500030  0.00302503
    Config      47   0.08486399  0.00720190
    Config      58  -0.07219395  0.00521197
    Config      60  -0.18352578  0.03368171
    Config      61   0.04547740  0.00206819
    Config      72  -0.17111308  0.02927969
    Config      83   0.11794825  0.01391179
 Total coeff printed             0.99494848
  
State   19 16.0890     CI coeff  CI percent
    Config      10   0.13911160  0.01935204
    Config      19   0.93607317  0.87623298
    Config      28   0.04653776  0.00216576
    Config      39   0.09518148  0.00905951
    Config      40   0.27023355  0.07302617
    Config      44   0.05805848  0.00337079
    Config      71  -0.07767761  0.00603381
    Config      77   0.07446731  0.00554538
 Total coeff printed             0.99478644
  
State   20 16.2346     CI coeff  CI percent
    Config       2  -0.23764464  0.05647497
    Config      13  -0.45273911  0.20497270
    Config      16  -0.85813178  0.73639015
 Total coeff printed             0.99783782
  
State   21 16.3287     CI coeff  CI percent
    Config      20  -0.95695995  0.91577235
    Config      34   0.04655244  0.00216713
    Config      35  -0.28392455  0.08061315
 Total coeff printed             0.99855263
  
State   22 16.5525     CI coeff  CI percent
    Config      21   0.38654906  0.14942018
    Config      25   0.79187164  0.62706070
    Config      26   0.23930242  0.05726565
    Config      27   0.18931254  0.03583924
    Config      45  -0.14368284  0.02064476
    Config      49  -0.11301650  0.01277273
    Config      50   0.08123930  0.00659982
    Config      57   0.21026743  0.04421239
    Config      69  -0.08284687  0.00686360
    Config      73   0.12957623  0.01679000
    Config      85  -0.11712000  0.01371710
    Config      98   0.04153583  0.00172522
 Total coeff printed             0.99291139
  
State   23 16.7950     CI coeff  CI percent
    Config      14  -0.66712231  0.44505218
    Config      15  -0.74481636  0.55475141
 Total coeff printed             0.99980359
  
State   24 17.1961     CI coeff  CI percent
    Config      28  -0.88673209  0.78629380
    Config      33  -0.27965241  0.07820547
    Config      36  -0.23400255  0.05475719
    Config      40   0.04375950  0.00191489
    Config      64  -0.16064065  0.02580542
    Config      66   0.04146569  0.00171940
    Config      75   0.18340684  0.03363807
    Config      79   0.07067905  0.00499553
    Config      82   0.04878466  0.00237994
    Config      96  -0.05405735  0.00292220
 Total coeff printed             0.99263192
  
State   25 17.2059     CI coeff  CI percent
    Config      12   0.06733816  0.00453443
    Config      18  -0.05414025  0.00293117
    Config      29  -0.37010230  0.13697571
    Config      32  -0.80854477  0.65374465
    Config      41   0.36861249  0.13587517
    Config      43  -0.07443822  0.00554105
    Config      56  -0.13318270  0.01773763
    Config      62   0.05105501  0.00260661
    Config      65  -0.06938535  0.00481433
    Config      74   0.11244851  0.01264467
    Config      76   0.08124841  0.00660130
    Config      78   0.11570598  0.01338787
 Total coeff printed             0.99739460
  
State   26 17.4873     CI coeff  CI percent
    Config       8   0.04083844  0.00166778
    Config      21   0.21879343  0.04787056
    Config      25   0.18975644  0.03600751
    Config      26  -0.48995390  0.24005482
    Config      27  -0.76432181  0.58418782
    Config      45  -0.04176032  0.00174392
    Config      48   0.05714907  0.00326602
    Config      49  -0.05027911  0.00252799
    Config      50   0.06574594  0.00432253
    Config      53  -0.22738994  0.05170619
    Config      57   0.05935403  0.00352290
    Config      67  -0.13500097  0.01822526
 Total coeff printed             0.99510330
  
State   27 17.7117     CI coeff  CI percent
    Config      12   0.11049248  0.01220859
    Config      18  -0.04961707  0.00246185
    Config      29   0.87909521  0.77280840
    Config      32  -0.32641278  0.10654530
    Config      38   0.05488697  0.00301258
    Config      41   0.14923755  0.02227185
    Config      54   0.04184197  0.00175075
    Config      56  -0.06970858  0.00485929
    Config      62  -0.18743645  0.03513242
    Config      76  -0.17373336  0.03018328
    Config      78   0.04768792  0.00227414
    Config      99  -0.05382013  0.00289661
 Total coeff printed             0.99640505
  
State   28 17.7780     CI coeff  CI percent
    Config       9  -0.31120099  0.09684605
    Config      23   0.94996615  0.90243569
 Total coeff printed             0.99928175
  
State   29 17.8783     CI coeff  CI percent
    Config      17   0.09640432  0.00929379
    Config      22  -0.05995525  0.00359463
    Config      30  -0.79903286  0.63845351
    Config      31  -0.49085125  0.24093495
    Config      52  -0.27896426  0.07782106
    Config      63   0.15321566  0.02347504
    Config      88  -0.04984569  0.00248459
    Config     108  -0.04485035  0.00201155
 Total coeff printed             0.99806913
  
State   30 18.0725     CI coeff  CI percent
    Config       7   0.28228116  0.07968265
    Config      24  -0.95868927  0.91908512
 Total coeff printed             0.99876778
  
State   31 18.0785     CI coeff  CI percent
    Config      19  -0.07184507  0.00516171
    Config      28  -0.10240651  0.01048709
    Config      33   0.75253817  0.56631370
    Config      36  -0.43088327  0.18566039
    Config      44   0.40717471  0.16579124
    Config      51  -0.15926087  0.02536402
    Config      66   0.10047134  0.01009449
    Config      79  -0.12615688  0.01591556
    Config      89  -0.11243108  0.01264075
 Total coeff printed             0.99742897
  
State   32 18.3839     CI coeff  CI percent
    Config      21  -0.17314869  0.02998047
    Config      26   0.80319742  0.64512609
    Config      27  -0.54488839  0.29690336
    Config      45   0.05436915  0.00295600
    Config      50  -0.05828037  0.00339660
    Config      53  -0.11678284  0.01363823
    Config      67   0.05081217  0.00258188
 Total coeff printed             0.99458263
  
State   33 18.7030     CI coeff  CI percent
    Config      10   0.10284003  0.01057607
    Config      19   0.06444453  0.00415310
    Config      28  -0.34210795  0.11703785
    Config      33   0.49519614  0.24521922
    Config      36   0.68466801  0.46877028
    Config      40  -0.10402617  0.01082144
    Config      44  -0.21995943  0.04838215
    Config      51   0.14815499  0.02194990
    Config      64  -0.09798247  0.00960056
    Config      66  -0.11821233  0.01397416
    Config      70  -0.08773277  0.00769704
    Config      75   0.05526637  0.00305437
    Config      79  -0.14533049  0.02112095
    Config      82  -0.11626960  0.01351862
 Total coeff printed             0.99587572
  
State   34 19.1885     CI coeff  CI percent
    Config      17   0.11330333  0.01283765
    Config      30   0.51030772  0.26041397
    Config      31  -0.83508600  0.69736863
    Config      46   0.04239599  0.00179742
    Config      47   0.06040352  0.00364859
    Config      52   0.10307084  0.01062360
    Config      55  -0.05754506  0.00331143
    Config      63   0.07460422  0.00556579
    Config      88  -0.04874311  0.00237589
 Total coeff printed             0.99794296
  
State   35 19.9964     CI coeff  CI percent
    Config       5   0.07971701  0.00635480
    Config      11   0.09301063  0.00865098
    Config      20   0.04384315  0.00192222
    Config      34  -0.94236801  0.88805747
    Config      35  -0.30386729  0.09233533
    Config     101   0.05176101  0.00267920
 Total coeff printed             1.00000000
  
State   36 20.5594     CI coeff  CI percent
    Config       5  -0.05262127  0.00276900
    Config      11   0.06504920  0.00423140
    Config      20   0.28489483  0.08116506
    Config      34   0.31026951  0.09626717
    Config      35  -0.89658812  0.80387025
    Config     101   0.10815321  0.01169712
 Total coeff printed             1.00000000
  
State   37 20.5605     CI coeff  CI percent
    Config      18  -0.15025568  0.02257677
    Config      29  -0.04503782  0.00202841
    Config      32  -0.09854979  0.00971206
    Config      38   0.79009640  0.62425233
    Config      41  -0.29631503  0.08780260
    Config      42   0.31986660  0.10231464
    Config      43  -0.29568246  0.08742811
    Config      54   0.05443770  0.00296346
    Config      56   0.16464018  0.02710639
    Config      74  -0.05033572  0.00253368
    Config      78   0.12945621  0.01675891
    Config      81  -0.10889473  0.01185806
 Total coeff printed             0.99733543
  
State   38 20.6487     CI coeff  CI percent
    Config      25  -0.08494870  0.00721628
    Config      45  -0.68651327  0.47130047
    Config      49   0.47811972  0.22859847
    Config      50  -0.28297122  0.08007271
    Config      57   0.34664904  0.12016556
    Config      69  -0.10048187  0.01009661
    Config      73  -0.19288904  0.03720618
    Config      85  -0.14572259  0.02123507
    Config      86   0.04637541  0.00215068
    Config      90   0.05486856  0.00301056
    Config      91   0.07776828  0.00604791
    Config      94  -0.07575247  0.00573844
 Total coeff printed             0.99283892
  
State   39 20.6650     CI coeff  CI percent
    Config      31  -0.04827431  0.00233041
    Config      46  -0.75593254  0.57143400
    Config      47  -0.43815680  0.19198138
    Config      58   0.10353312  0.01071911
    Config      60  -0.35290271  0.12454032
    Config      72   0.19550891  0.03822374
    Config      83   0.18187043  0.03307685
    Config      92   0.08758318  0.00767081
    Config      93   0.11023558  0.01215188
 Total coeff printed             0.99212850
  
State   40 20.8532     CI coeff  CI percent
    Config       3  -0.15346561  0.02355169
    Config      37  -0.98748909  0.97513471
 Total coeff printed             0.99868640
  
State   41 21.0410     CI coeff  CI percent
    Config      12  -0.04969248  0.00246934
    Config      32  -0.30868985  0.09528942
    Config      38  -0.49207831  0.24214106
    Config      41  -0.63690058  0.40564235
    Config      42   0.07214739  0.00520525
    Config      43  -0.18336801  0.03362383
    Config      54   0.10276491  0.01056063
    Config      56   0.33144011  0.10985254
    Config      74  -0.07774876  0.00604487
    Config      78   0.28399435  0.08065279
    Config      81   0.04386065  0.00192376
 Total coeff printed             0.99340584
  
State   42 21.1645     CI coeff  CI percent
    Config      19  -0.17506504  0.03064777
    Config      33   0.08220171  0.00675712
    Config      36  -0.08161368  0.00666079
    Config      39   0.85242380  0.72662633
    Config      40   0.33863425  0.11467316
    Config      44  -0.20100875  0.04040452
    Config      51   0.19400413  0.03763760
    Config      66  -0.07360917  0.00541831
    Config      77   0.12624502  0.01593780
    Config      82   0.09747782  0.00950193
 Total coeff printed             0.99426534
  
State   43 21.5524     CI coeff  CI percent
    Config      19  -0.05991669  0.00359001
    Config      33   0.14651068  0.02146538
    Config      36  -0.24809096  0.06154912
    Config      39  -0.48116029  0.23151522
    Config      40   0.51118135  0.26130637
    Config      44  -0.42693088  0.18226998
    Config      51   0.40215018  0.16172476
    Config      66  -0.13800502  0.01904539
    Config      79  -0.06897254  0.00475721
    Config      82   0.21733164  0.04723304
 Total coeff printed             0.99445648
  
State   44 21.8278     CI coeff  CI percent
    Config      12   0.04504583  0.00202913
    Config      18  -0.11901520  0.01416462
    Config      32   0.16588135  0.02751662
    Config      38  -0.31941207  0.10202407
    Config      41   0.25343663  0.06423013
    Config      42   0.81680706  0.66717377
    Config      43  -0.31349152  0.09827693
    Config      54   0.05110212  0.00261143
    Config      56  -0.09423324  0.00887990
    Config      78  -0.10307425  0.01062430
 Total coeff printed             0.99753090
  
State   45 21.8426     CI coeff  CI percent
    Config       4  -0.05697262  0.00324588
    Config      17  -0.06923157  0.00479301
    Config      22  -0.04327182  0.00187245
    Config      31   0.06983216  0.00487653
    Config      46  -0.14184198  0.02011915
    Config      47   0.51717896  0.26747408
    Config      55  -0.54655919  0.29872695
    Config      58   0.48264447  0.23294568
    Config      60  -0.20275784  0.04111074
    Config      61   0.28742354  0.08261229
    Config      72   0.12491910  0.01560478
    Config      87   0.09120504  0.00831836
    Config      93  -0.05626934  0.00316624
    Config      95  -0.06371243  0.00405927
    Config     104  -0.07961537  0.00633861
    Config     112  -0.04477379  0.00200469
 Total coeff printed             0.99726871
  
State   46 22.4070     CI coeff  CI percent
    Config      21   0.15473063  0.02394157
    Config      25   0.16942151  0.02870365
    Config      26  -0.05761085  0.00331901
    Config      45   0.40623787  0.16502921
    Config      49   0.51809944  0.26842703
    Config      50  -0.54641456  0.29856887
    Config      57  -0.26771451  0.07167106
    Config      67   0.05243306  0.00274923
    Config      69  -0.26344436  0.06940293
    Config      73   0.17581118  0.03090957
    Config      80   0.10498931  0.01102276
    Config      85   0.07904836  0.00624864
    Config      90   0.08699845  0.00756873
    Config      98   0.06141323  0.00377158
    Config     113   0.04177901  0.00174549
 Total coeff printed             0.99307932
  
State   47 22.6396     CI coeff  CI percent
    Config      19   0.22004333  0.04841907
    Config      33   0.09296042  0.00864164
    Config      36  -0.36196195  0.13101645
    Config      39   0.10872951  0.01182211
    Config      40  -0.72701949  0.52855734
    Config      44  -0.34678448  0.12025948
    Config      51   0.33083549  0.10945212
    Config      66  -0.06546829  0.00428610
    Config      70   0.04829436  0.00233235
    Config      79  -0.05155925  0.00265836
    Config      82   0.16405821  0.02691510
    Config      89  -0.04989628  0.00248964
 Total coeff printed             0.99684974
  
State   48 23.0849     CI coeff  CI percent
    Config      12  -0.04956756  0.00245694
    Config      18  -0.04261873  0.00181636
    Config      41  -0.21815477  0.04759150
    Config      42   0.05116305  0.00261766
    Config      43  -0.12468108  0.01554537
    Config      54  -0.76152626  0.57992225
    Config      56  -0.27927026  0.07799188
    Config      62  -0.04512670  0.00203642
    Config      65  -0.07273016  0.00528968
    Config      68  -0.43253196  0.18708389
    Config      74   0.25153169  0.06326819
    Config      78   0.04115828  0.00169400
    Config      97  -0.08315744  0.00691516
 Total coeff printed             0.99422930
  
State   49 23.4183     CI coeff  CI percent
    Config       8  -0.05067535  0.00256799
    Config      27  -0.12707592  0.01614829
    Config      48  -0.93259692  0.86973701
    Config      49   0.10284301  0.01057668
    Config      50   0.14058466  0.01976405
    Config      53   0.12596212  0.01586646
    Config      67   0.21623188  0.04675623
    Config      69   0.08680487  0.00753509
    Config      94  -0.05528015  0.00305590
    Config     106  -0.05286392  0.00279459
 Total coeff printed             0.99480228
  
State   50 23.4713     CI coeff  CI percent
    Config      18  -0.15199819  0.02310345
    Config      32   0.14629294  0.02140163
    Config      38  -0.07987001  0.00637922
    Config      41   0.16022087  0.02567073
    Config      42  -0.46339927  0.21473889
    Config      43  -0.83496308  0.69716335
    Config      68   0.04030920  0.00162483
    Config      74  -0.06236943  0.00388995
 Total coeff printed             0.99397203
  
State   51 23.7050     CI coeff  CI percent
    Config      25  -0.07699816  0.00592872
    Config      45   0.12382825  0.01533344
    Config      48  -0.19070633  0.03636890
    Config      49  -0.52372022  0.27428286
    Config      50  -0.53783529  0.28926680
    Config      53   0.09283212  0.00861780
    Config      57   0.33791384  0.11418576
    Config      67  -0.05750251  0.00330654
    Config      69  -0.31335083  0.09818874
    Config      73  -0.24520323  0.06012462
    Config      80  -0.09482095  0.00899101
    Config      86   0.13680403  0.01871534
    Config      91  -0.11400514  0.01299717
    Config      94   0.21466877  0.04608268
    Config     106  -0.04573714  0.00209189
 Total coeff printed             0.99448228
  
State   52 24.0104     CI coeff  CI percent
    Config       4   0.09188644  0.00844312
    Config      22   0.10369856  0.01075339
    Config      46   0.05756305  0.00331350
    Config      47  -0.50847362  0.25854542
    Config      52   0.12421554  0.01542950
    Config      55  -0.37671995  0.14191792
    Config      58   0.25053022  0.06276539
    Config      60   0.37854820  0.14329874
    Config      61   0.30323602  0.09195208
    Config      72  -0.35910737  0.12895810
    Config      83  -0.15056414  0.02266956
    Config      87   0.17445629  0.03043500
    Config      92   0.10461549  0.01094440
    Config      93   0.21621918  0.04675074
    Config      95   0.13061127  0.01705930
    Config     112   0.05095380  0.00259629
 Total coeff printed             0.99583246
  
State   53 24.2113     CI coeff  CI percent
    Config      10  -0.12823031  0.01644301
    Config      33  -0.05171490  0.00267443
    Config      36   0.05289212  0.00279758
    Config      44   0.55660549  0.30980968
    Config      51   0.56112196  0.31485786
    Config      64   0.12484233  0.01558561
    Config      66  -0.53164531  0.28264674
    Config      79   0.20178286  0.04071632
    Config      82  -0.07542637  0.00568914
    Config      96  -0.05595264  0.00313070
 Total coeff printed             0.99435105
  
State   54 24.3428     CI coeff  CI percent
    Config       4  -0.04298295  0.00184753
    Config      30  -0.06930992  0.00480387
    Config      46  -0.32150108  0.10336294
    Config      47   0.25707036  0.06608517
    Config      52   0.30422506  0.09255289
    Config      55   0.37331737  0.13936586
    Config      58   0.41346448  0.17095287
    Config      60   0.39300717  0.15445463
    Config      61  -0.28840552  0.08317774
    Config      63   0.05484358  0.00300782
    Config      72  -0.30220826  0.09132983
    Config      92   0.18915145  0.03577827
    Config      93  -0.14963521  0.02239070
    Config      95  -0.05772606  0.00333230
    Config     100   0.13980313  0.01954491
    Config     104  -0.04745979  0.00225243
 Total coeff printed             0.99423977
  
State   55 24.5423     CI coeff  CI percent
    Config      29   0.06170147  0.00380707
    Config      32  -0.04102047  0.00168268
    Config      41  -0.04612269  0.00212730
    Config      56  -0.15122531  0.02286909
    Config      62   0.68709159  0.47209485
    Config      65   0.55800569  0.31137035
    Config      74   0.14893110  0.02218047
    Config      76  -0.38341163  0.14700448
    Config      99   0.11340451  0.01286058
 Total coeff printed             0.99599688
  
State   56 24.5670     CI coeff  CI percent
    Config      27   0.06009508  0.00361142
    Config      45  -0.44236568  0.19568740
    Config      48  -0.15385204  0.02367045
    Config      49  -0.29306809  0.08588891
    Config      50  -0.22918132  0.05252408
    Config      53  -0.30019875  0.09011929
    Config      57  -0.53368769  0.28482255
    Config      67  -0.08317704  0.00691842
    Config      69  -0.10633387  0.01130689
    Config      73   0.35686646  0.12735367
    Config      80  -0.11210715  0.01256801
    Config      91   0.28267600  0.07990572
    Config      94   0.13539632  0.01833216
 Total coeff printed             0.99270897
  
State   57 24.7461     CI coeff  CI percent
    Config      22  -0.06302467  0.00397211
    Config      30  -0.28366254  0.08046444
    Config      31  -0.07661659  0.00587010
    Config      47   0.06886144  0.00474190
    Config      52   0.82254162  0.67657472
    Config      55  -0.13244540  0.01754178
    Config      58  -0.33308311  0.11094436
    Config      60  -0.08739175  0.00763732
    Config      61   0.11748970  0.01380383
    Config      63  -0.24235503  0.05873596
    Config      72   0.04701817  0.00221071
    Config      87  -0.04078999  0.00166382
    Config      95  -0.05139932  0.00264189
    Config     100  -0.10113250  0.01022778
 Total coeff printed             0.99703072
  
State   58 24.8499     CI coeff  CI percent
    Config      10   0.05342185  0.00285389
    Config      28  -0.05200655  0.00270468
    Config      36   0.06222806  0.00387233
    Config      44  -0.08227382  0.00676898
    Config      51  -0.04979870  0.00247991
    Config      64   0.70057602  0.49080676
    Config      70   0.50732721  0.25738089
    Config      75   0.45608326  0.20801194
    Config      96   0.13817881  0.01909338
 Total coeff printed             0.99397278
  
State   59 25.2066     CI coeff  CI percent
    Config       6  -0.07343608  0.00539286
    Config      16   0.05058580  0.00255892
    Config      59   0.94940227  0.90136467
    Config      84   0.29810057  0.08886395
 Total coeff printed             0.99818040
  
State   60 25.2881     CI coeff  CI percent
    Config      12   0.12288859  0.01510161
    Config      32  -0.05298666  0.00280759
    Config      41   0.28573526  0.08164464
    Config      43   0.05163914  0.00266660
    Config      54  -0.51646927  0.26674051
    Config      56   0.66048177  0.43623617
    Config      62   0.07683485  0.00590359
    Config      65   0.09829819  0.00966253
    Config      68   0.11098790  0.01231831
    Config      74  -0.33079917  0.10942809
    Config      76  -0.11996223  0.01439094
    Config      78  -0.04656766  0.00216855
    Config      97  -0.17701098  0.03133289
    Config      99   0.06904833  0.00476767
 Total coeff printed             0.99516969
  
State   61 25.3479     CI coeff  CI percent
    Config      27   0.24165458  0.05839694
    Config      45   0.18876398  0.03563184
    Config      48  -0.15324650  0.02348449
    Config      49   0.07439301  0.00553432
    Config      50   0.05120755  0.00262221
    Config      53  -0.89123399  0.79429803
    Config      57   0.21103927  0.04453757
    Config      67  -0.06354324  0.00403774
    Config      73  -0.12089518  0.01461564
    Config      91  -0.09317181  0.00868099
 Total coeff printed             0.99183977
  
State   62 25.6377     CI coeff  CI percent
    Config       4   0.06914272  0.00478072
    Config      22   0.04608402  0.00212374
    Config      30  -0.08453684  0.00714648
    Config      46   0.44299632  0.19624574
    Config      47  -0.23231911  0.05397217
    Config      52   0.31400205  0.09859729
    Config      55   0.16231885  0.02634741
    Config      58   0.49521600  0.24523889
    Config      60  -0.29049508  0.08438739
    Config      61  -0.19978432  0.03991377
    Config      63   0.22869049  0.05229934
    Config      72   0.28060126  0.07873706
    Config      83   0.06024849  0.00362988
    Config      92  -0.21686032  0.04702840
    Config      93   0.05864590  0.00343934
    Config      95   0.14141422  0.01999798
    Config     100   0.16672030  0.02779566
    Config     112   0.04618454  0.00213301
    Config     115   0.05495375  0.00301992
 Total coeff printed             0.99683418
  
State   63 26.7579     CI coeff  CI percent
    Config      32   0.04809405  0.00231304
    Config      54  -0.06078678  0.00369503
    Config      62   0.41171829  0.16951195
    Config      65  -0.71398917  0.50978054
    Config      68   0.31162561  0.09711052
    Config      74   0.22529146  0.05075624
    Config      76  -0.27833124  0.07746828
    Config      78  -0.13612999  0.01853137
    Config      97  -0.06592416  0.00434600
    Config      99  -0.14057392  0.01976103
    Config     102   0.19007459  0.03612835
    Config     110   0.04201002  0.00176484
    Config     117   0.04990235  0.00249024
 Total coeff printed             0.99365743
  
State   64 27.2175     CI coeff  CI percent
    Config      36  -0.07476024  0.00558909
    Config      44  -0.04916011  0.00241672
    Config      51  -0.07061646  0.00498668
    Config      64   0.38937050  0.15160938
    Config      66  -0.06520335  0.00425148
    Config      70  -0.79618455  0.63390983
    Config      75   0.33521510  0.11236916
    Config      77   0.06430963  0.00413573
    Config      82   0.10850239  0.01177277
    Config      96  -0.13763938  0.01894460
    Config     105  -0.20416961  0.04168523
    Config     111   0.04481786  0.00200864
    Config     119   0.06230683  0.00388214
 Total coeff printed             0.99756146
  
State   65 27.2616     CI coeff  CI percent
    Config       4  -0.04428683  0.00196132
    Config      17  -0.11255455  0.01266853
    Config      22  -0.06176538  0.00381496
    Config      30   0.04081963  0.00166624
    Config      31   0.08113814  0.00658340
    Config      46  -0.07199115  0.00518273
    Config      52   0.10347546  0.01070717
    Config      55  -0.32730712  0.10712995
    Config      58  -0.18591112  0.03456294
    Config      60  -0.16932633  0.02867140
    Config      61  -0.35729591  0.12766037
    Config      63   0.65697748  0.43161941
    Config      72  -0.23671950  0.05603612
    Config      83  -0.26570405  0.07059864
    Config      87  -0.28574423  0.08164977
    Config      88  -0.05808985  0.00337443
    Config      92   0.06133559  0.00376205
    Config     100  -0.04964208  0.00246434
    Config     108  -0.06788384  0.00460822
    Config     116  -0.06148361  0.00378023
 Total coeff printed             0.99850223
  
State   66 27.3579     CI coeff  CI percent
    Config      17   0.11501159  0.01322767
    Config      31   0.11743001  0.01378981
    Config      46  -0.05812124  0.00337808
    Config      47   0.11027430  0.01216042
    Config      52   0.12014557  0.01443496
    Config      55   0.24934427  0.06217256
    Config      58  -0.18579713  0.03452057
    Config      60   0.19684523  0.03874804
    Config      61   0.49801449  0.24801843
    Config      63   0.62918008  0.39586757
    Config      72   0.19743032  0.03897873
    Config      83   0.23838453  0.05682718
    Config      87   0.22577393  0.05097387
    Config      88  -0.05669390  0.00321420
    Config      93  -0.04072936  0.00165888
    Config      95   0.07479080  0.00559366
    Config     108  -0.06014166  0.00361702
 Total coeff printed             0.99718166
  
State   67 27.4970     CI coeff  CI percent
    Config      41   0.14690645  0.02158151
    Config      54   0.17812282  0.03172774
    Config      62   0.20544969  0.04220958
    Config      65  -0.27520928  0.07574015
    Config      68  -0.67617015  0.45720607
    Config      74  -0.46716174  0.21824009
    Config      76  -0.24555666  0.06029807
    Config      78   0.19031708  0.03622059
    Config      97   0.18840030  0.03549467
    Config      99   0.05816224  0.00338285
    Config     102   0.11209734  0.01256581
    Config     117   0.04584082  0.00210138
 Total coeff printed             0.99676851
  
State   68 27.5814     CI coeff  CI percent
    Config       8  -0.05888318  0.00346723
    Config      21  -0.13560528  0.01838879
    Config      25   0.07712664  0.00594852
    Config      45   0.04871252  0.00237291
    Config      49   0.07313194  0.00534828
    Config      50   0.39322679  0.15462730
    Config      57  -0.08898703  0.00791869
    Config      69  -0.63771349  0.40667849
    Config      73  -0.16208855  0.02627270
    Config      80  -0.36182181  0.13091502
    Config      86   0.29460842  0.08679412
    Config      90   0.35547117  0.12635975
    Config      91   0.08872161  0.00787152
    Config      94  -0.05265354  0.00277240
    Config      98   0.07383092  0.00545101
    Config     122  -0.06967669  0.00485484
 Total coeff printed             0.99604158
  
State   69 27.8643     CI coeff  CI percent
    Config      26  -0.11217177  0.01258251
    Config      27  -0.04158653  0.00172944
    Config      48   0.18816706  0.03540684
    Config      49  -0.12646692  0.01599388
    Config      50  -0.04795696  0.00229987
    Config      53  -0.13721298  0.01882740
    Config      67   0.93654236  0.87711159
    Config      73   0.05303727  0.00281295
    Config      80  -0.05447013  0.00296700
    Config      85   0.06676304  0.00445730
    Config      86   0.04445000  0.00197580
    Config      98   0.08795926  0.00773683
    Config     106  -0.07182977  0.00515952
    Config     114   0.04579349  0.00209704
    Config     118  -0.05223951  0.00272897
 Total coeff printed             0.99388695
  
State   70 27.9031     CI coeff  CI percent
    Config      19  -0.07590051  0.00576089
    Config      39  -0.04344902  0.00188782
    Config      71  -0.99265452  0.98536300
    Config      79  -0.05501023  0.00302613
 Total coeff printed             0.99603783
  
State   71 28.1867     CI coeff  CI percent
    Config      21  -0.04189284  0.00175501
    Config      25   0.08820692  0.00778046
    Config      49  -0.07714204  0.00595089
    Config      53  -0.04522319  0.00204514
    Config      57  -0.40454367  0.16365558
    Config      67   0.09735523  0.00947804
    Config      69  -0.06831576  0.00466704
    Config      73  -0.52308468  0.27361758
    Config      80   0.23597849  0.05568585
    Config      85  -0.58412008  0.34119627
    Config      86  -0.34612679  0.11980375
    Config      90   0.07468998  0.00557859
    Config      91  -0.07264094  0.00527671
 Total coeff printed             0.99649093
  
State   72 28.3645     CI coeff  CI percent
    Config      10  -0.18920355  0.03579798
    Config      51   0.43824963  0.19206274
    Config      64   0.08815829  0.00777188
    Config      66   0.67095711  0.45018345
    Config      70  -0.08454444  0.00714776
    Config      79   0.21423080  0.04589483
    Config      82  -0.46118003  0.21268702
    Config      89  -0.16878883  0.02848967
    Config      96   0.06230013  0.00388131
    Config     105  -0.10762493  0.01158313
 Total coeff printed             0.99549977
  
State   73 29.1142     CI coeff  CI percent
    Config      17   0.12595803  0.01586543
    Config      22  -0.14001463  0.01960410
    Config      55   0.33361463  0.11129872
    Config      58   0.06673746  0.00445389
    Config      60  -0.48985351  0.23995646
    Config      61   0.39092381  0.15282142
    Config      72  -0.48995411  0.24005503
    Config      83  -0.38771364  0.15032187
    Config      92  -0.10097502  0.01019595
    Config      93  -0.18775476  0.03525185
    Config     100   0.05792399  0.00335519
    Config     104   0.10084394  0.01016950
    Config     115   0.05880465  0.00345799
 Total coeff printed             0.99680739
  
State   74 29.1440     CI coeff  CI percent
    Config      12  -0.17949189  0.03221734
    Config      32   0.09378761  0.00879612
    Config      54  -0.15490304  0.02399495
    Config      56  -0.40646979  0.16521769
    Config      62   0.06911753  0.00477723
    Config      68   0.38394869  0.14741659
    Config      74  -0.42869328  0.18377793
    Config      76   0.06328707  0.00400525
    Config      78   0.57925807  0.33553991
    Config      97  -0.27865461  0.07764839
    Config     102   0.10072692  0.01014591
 Total coeff printed             0.99353732
  
State   75 29.3385     CI coeff  CI percent
    Config      10   0.07086040  0.00502120
    Config      28   0.06441838  0.00414973
    Config      33   0.12917400  0.01668592
    Config      44  -0.14289898  0.02042012
    Config      51  -0.19447944  0.03782225
    Config      64  -0.14525824  0.02109996
    Config      66  -0.12633630  0.01596086
    Config      71  -0.07170998  0.00514232
    Config      75   0.18876800  0.03563336
    Config      79   0.75742004  0.57368512
    Config      82   0.11768489  0.01384973
    Config      89  -0.48874927  0.23887585
    Config      96   0.07746889  0.00600143
    Config     105   0.05567766  0.00310000
 Total coeff printed             0.99744785
  
State   76 29.3480     CI coeff  CI percent
    Config      21   0.15076106  0.02272890
    Config      45   0.07243833  0.00524731
    Config      49   0.09884201  0.00976974
    Config      50  -0.14329565  0.02053364
    Config      57  -0.08316951  0.00691717
    Config      69   0.41343405  0.17092772
    Config      73  -0.04543490  0.00206433
    Config      80  -0.77826524  0.60569678
    Config      85  -0.23402520  0.05476780
    Config      90   0.12282427  0.01508580
    Config      91  -0.18091114  0.03272884
    Config      94   0.07115102  0.00506247
    Config      98   0.07181976  0.00515808
    Config     109  -0.19043583  0.03626581
    Config     114  -0.04646206  0.00215872
    Config     122  -0.04785001  0.00228962
 Total coeff printed             0.99740272
  
State   77 29.6345     CI coeff  CI percent
    Config      19   0.04413424  0.00194783
    Config      39   0.12680680  0.01607997
    Config      40   0.07323060  0.00536272
    Config      70  -0.05522945  0.00305029
    Config      71  -0.04032754  0.00162631
    Config      77  -0.97357998  0.94785799
    Config     103   0.09677912  0.00936620
    Config     111   0.10255993  0.01051854
    Config     120  -0.05045398  0.00254560
 Total coeff printed             0.99835545
  
State   78 30.1181     CI coeff  CI percent
    Config      18   0.04230218  0.00178947
    Config      38   0.11506979  0.01324106
    Config      43  -0.07057336  0.00498060
    Config      81   0.97633704  0.95323401
    Config     107  -0.09950430  0.00990111
    Config     110  -0.10942176  0.01197312
    Config     121   0.05058517  0.00255886
 Total coeff printed             0.99767823
  
State   79 30.8517     CI coeff  CI percent
    Config      17   0.10084445  0.01016960
    Config      22   0.16390865  0.02686605
    Config      46   0.04754656  0.00226068
    Config      55   0.11198633  0.01254094
    Config      58   0.04037791  0.00163038
    Config      60   0.05998763  0.00359852
    Config      61   0.22854479  0.05223272
    Config      72   0.35500128  0.12602591
    Config      83  -0.43154119  0.18622780
    Config      87  -0.44658366  0.19943696
    Config      92   0.45240380  0.20466920
    Config      93   0.20487991  0.04197578
    Config      95  -0.14417086  0.02078524
    Config     100   0.32532390  0.10583564
 Total coeff printed             0.99425540
  
State   80 31.0580     CI coeff  CI percent
    Config      10  -0.04861660  0.00236357
    Config      28   0.21064664  0.04437201
    Config      44   0.12328353  0.01519883
    Config      51   0.12283537  0.01508853
    Config      64  -0.48551919  0.23572889
    Config      66   0.05365910  0.00287930
    Config      75   0.69401608  0.48165833
    Config      79  -0.14664215  0.02150392
    Config      82   0.07436033  0.00552946
    Config      89   0.17982810  0.03233815
    Config      96   0.36909392  0.13623032
    Config     103   0.07039115  0.00495491
 Total coeff printed             0.99784621
  
State   81 31.2317     CI coeff  CI percent
    Config      29  -0.22669546  0.05139083
    Config      41  -0.07822005  0.00611838
    Config      56  -0.09958868  0.00991791
    Config      62  -0.47983647  0.23024304
    Config      68   0.10991878  0.01208214
    Config      76  -0.75161188  0.56492042
    Config      99   0.33965689  0.11536680
    Config     107   0.06721737  0.00451817
 Total coeff printed             0.99455769
  
State   82 31.2395     CI coeff  CI percent
    Config      25   0.18746034  0.03514138
    Config      45   0.05925728  0.00351142
    Config      50  -0.10143435  0.01028893
    Config      57  -0.14460266  0.02090993
    Config      69   0.07384798  0.00545352
    Config      73  -0.45341976  0.20558948
    Config      80  -0.16920188  0.02862928
    Config      85   0.28913800  0.08360078
    Config      86   0.11274965  0.01271248
    Config      90  -0.44139879  0.19483289
    Config      91   0.42767260  0.18290385
    Config      94  -0.41221897  0.16992448
    Config      98  -0.15778570  0.02489633
    Config     109  -0.10882524  0.01184293
    Config     113  -0.08507926  0.00723848
 Total coeff printed             0.99747618
  
State   83 32.1882     CI coeff  CI percent
    Config      17   0.08947324  0.00800546
    Config      22  -0.06510020  0.00423804
    Config      47  -0.09796105  0.00959637
    Config      55  -0.05640848  0.00318192
    Config      58   0.06779603  0.00459630
    Config      60   0.10796947  0.01165741
    Config      61   0.19968523  0.03987419
    Config      72  -0.21293008  0.04533922
    Config      83   0.42270928  0.17868314
    Config      87  -0.60655971  0.36791469
    Config      88   0.06610696  0.00437013
    Config      92  -0.37824927  0.14307251
    Config      93  -0.06992024  0.00488884
    Config      95  -0.31881459  0.10164274
    Config     100   0.22366676  0.05002682
    Config     104  -0.04559150  0.00207859
    Config     112   0.06513521  0.00424260
    Config     115  -0.11584388  0.01341981
    Config     116  -0.04589823  0.00210665
 Total coeff printed             0.99893539
  
State   84 32.2326     CI coeff  CI percent
    Config      59  -0.29860907  0.08916738
    Config      84   0.95316494  0.90852341
 Total coeff printed             0.99769078
  
State   85 32.5408     CI coeff  CI percent
    Config      10   0.07472324  0.00558356
    Config      33  -0.11955873  0.01429429
    Config      36  -0.19454478  0.03784767
    Config      44  -0.15825107  0.02504340
    Config      51  -0.14949584  0.02234901
    Config      64  -0.04459153  0.00198840
    Config      66  -0.36963791  0.13663219
    Config      75   0.08579840  0.00736137
    Config      79  -0.31652436  0.10018767
    Config      82  -0.65311168  0.42655487
    Config      89  -0.42577422  0.18128369
    Config      96   0.14405110  0.02075072
    Config     103   0.04471058  0.00199904
    Config     105  -0.12565445  0.01578904
 Total coeff printed             0.99766492
  
State   86 32.8518     CI coeff  CI percent
    Config      12  -0.12437282  0.01546860
    Config      32  -0.24383371  0.05945488
    Config      41  -0.24436310  0.05971333
    Config      56  -0.24891585  0.06195910
    Config      62   0.04707254  0.00221582
    Config      74  -0.48864950  0.23877834
    Config      76   0.04303992  0.00185243
    Config      78  -0.67481693  0.45537790
    Config      97  -0.31996942  0.10238043
 Total coeff printed             0.99720082
  
State   87 33.1241     CI coeff  CI percent
    Config      31  -0.05590430  0.00312529
    Config      63   0.09472717  0.00897324
    Config      87   0.06063313  0.00367638
    Config      88   0.98006445  0.96052632
    Config     108   0.09182847  0.00843247
    Config     112   0.07969425  0.00635117
    Config     123  -0.04685504  0.00219540
 Total coeff printed             0.99328026
  
State   88 33.1430     CI coeff  CI percent
    Config       1  -0.06359745  0.00404464
    Config       8  -0.08860083  0.00785011
    Config      21   0.14044256  0.01972411
    Config      25   0.04756805  0.00226272
    Config      45  -0.05511628  0.00303780
    Config      49  -0.04782043  0.00228679
    Config      50  -0.06258091  0.00391637
    Config      57  -0.15925536  0.02536227
    Config      69   0.36751234  0.13506532
    Config      73  -0.19710997  0.03885234
    Config      80   0.25066488  0.06283288
    Config      86   0.71470049  0.51079680
    Config      90   0.26312604  0.06923531
    Config      98   0.13142314  0.01727204
    Config     109   0.27049424  0.07316714
    Config     113  -0.11443782  0.01309601
    Config     122  -0.07246569  0.00525128
 Total coeff printed             0.99405393
  
State   89 33.2788     CI coeff  CI percent
    Config       1  -0.05568337  0.00310064
    Config       8  -0.07974349  0.00635902
    Config      25  -0.08293632  0.00687843
    Config      57  -0.06258014  0.00391627
    Config      69  -0.15697356  0.02464070
    Config      73   0.28469630  0.08105198
    Config      80  -0.05279801  0.00278763
    Config      85  -0.38004604  0.14443499
    Config      86   0.28350739  0.08037644
    Config      90  -0.37934335  0.14390138
    Config      91  -0.40165403  0.16132596
    Config      94  -0.36284420  0.13165591
    Config      98  -0.37654789  0.14178831
    Config     109   0.07930759  0.00628969
    Config     113  -0.23945368  0.05733807
 Total coeff printed             0.99584543
  
State   90 34.1592     CI coeff  CI percent
    Config       4   0.06973410  0.00486284
    Config      22   0.06539465  0.00427646
    Config      47  -0.15127897  0.02288533
    Config      55  -0.20471670  0.04190893
    Config      58  -0.05932210  0.00351911
    Config      60   0.10840220  0.01175104
    Config      61  -0.05439968  0.00295933
    Config      72   0.15979415  0.02553417
    Config      83  -0.10336497  0.01068432
    Config      87   0.10032264  0.01006463
    Config      93  -0.68404324  0.46791516
    Config     100   0.32105527  0.10307649
    Config     104   0.49531781  0.24533973
    Config     112   0.12197693  0.01487837
    Config     115  -0.09465167  0.00895894
    Config     116   0.11033259  0.01217328
    Config     123   0.07230375  0.00522783
 Total coeff printed             0.99601594
  
State   91 34.2629     CI coeff  CI percent
    Config      28  -0.12772399  0.01631342
    Config      44   0.04202786  0.00176634
    Config      51  -0.04226477  0.00178631
    Config      64   0.09818440  0.00964018
    Config      70  -0.06279488  0.00394320
    Config      75  -0.30489438  0.09296058
    Config      79   0.06717608  0.00451263
    Config      82   0.15687195  0.02460881
    Config      89   0.05669000  0.00321376
    Config      96   0.68001285  0.46241748
    Config     103   0.32910367  0.10830922
    Config     105  -0.50100552  0.25100653
    Config     111   0.04146382  0.00171925
    Config     119  -0.11346592  0.01287452
    Config     120   0.04780648  0.00228546
 Total coeff printed             0.99735766
  
State   92 34.3281     CI coeff  CI percent
    Config      29  -0.11261337  0.01268177
    Config      56  -0.06107014  0.00372956
    Config      62  -0.04450599  0.00198078
    Config      74  -0.08762011  0.00767728
    Config      76  -0.25201763  0.06351288
    Config      78   0.05722599  0.00327481
    Config      81  -0.04088223  0.00167136
    Config      99  -0.68112425  0.46393025
    Config     102  -0.56448699  0.31864556
    Config     107  -0.31373890  0.09843210
    Config     110  -0.04661092  0.00217258
    Config     117   0.13789388  0.01901472
    Config     121  -0.04151435  0.00172344
 Total coeff printed             0.99844711
  
State   93 34.7975     CI coeff  CI percent
    Config       4   0.04148776  0.00172123
[...]
    Config     198   0.93515174  0.87450878
 Total coeff printed             0.99548242
  
State  199 40.9877     CI coeff  CI percent
    Config     155  -0.04947398  0.00244768
    Config     173  -0.49425714  0.24429012
    Config     176   0.12645081  0.01598981
    Config     188  -0.83554522  0.69813582
    Config     204   0.17618856  0.03104241
 Total coeff printed             0.99190583
  
State  200 41.1571     CI coeff  CI percent
    Config      93   0.08475036  0.00718262
    Config     148   0.09147145  0.00836703
    Config     157   0.05713804  0.00326476
    Config     159  -0.07891908  0.00622822
    Config     163   0.07207574  0.00519491
    Config     169   0.07366953  0.00542720
    Config     187   0.29311124  0.08591420
    Config     202   0.64482277  0.41579641
    Config     203   0.62925973  0.39596781
    Config     230   0.07311674  0.00534606
    Config     237  -0.16521504  0.02729601
    Config     238  -0.16393822  0.02687574
 Total coeff printed             0.99286095
  
State  201 41.2189     CI coeff  CI percent
    Config     135   0.05232333  0.00273773
    Config     140  -0.04902546  0.00240350
    Config     160   0.14354139  0.02060413
    Config     200   0.97599477  0.95256580
    Config     210  -0.08512793  0.00724676
    Config     212   0.07510689  0.00564104
    Config     228   0.07543849  0.00569097
 Total coeff printed             0.99688993
  
State  202 41.4502     CI coeff  CI percent
    Config     107   0.21619276  0.04673931
    Config     109  -0.10676645  0.01139908
    Config     138   0.05962839  0.00355554
    Config     151   0.07940062  0.00630446
    Config     194  -0.08725260  0.00761302
    Config     199   0.84750550  0.71826558
    Config     201  -0.40744393  0.16601056
    Config     205   0.13662986  0.01866772
    Config     223   0.12158142  0.01478204
 Total coeff printed             0.99333729
  
State  203 41.6715     CI coeff  CI percent
    Config      44  -0.06075402  0.00369105
    Config      77  -0.05982273  0.00357876
    Config      93  -0.25357344  0.06429949
    Config     115  -0.09466326  0.00896113
    Config     148  -0.38764330  0.15026733
    Config     159  -0.04716377  0.00222442
    Config     163   0.06484623  0.00420503
    Config     186   0.12815481  0.01642365
    Config     187  -0.78940204  0.62315557
    Config     202   0.28524485  0.08136463
    Config     203   0.12815292  0.01642317
    Config     222  -0.07509609  0.00563942
    Config     237  -0.10219096  0.01044299
    Config     238  -0.04278958  0.00183095
 Total coeff printed             0.99250760
  
State  204 41.7775     CI coeff  CI percent
    Config      42   0.05556833  0.00308784
    Config      74   0.09316567  0.00867984
    Config     155   0.19972121  0.03988856
    Config     173   0.08110715  0.00657837
    Config     188   0.13825860  0.01911544
    Config     204   0.94316421  0.88955872
    Config     208  -0.12280166  0.01508025
    Config     233   0.11916527  0.01420036
 Total coeff printed             0.99618939
  
State  205 41.8496     CI coeff  CI percent
    Config     150  -0.10640286  0.01132157
    Config     206  -0.76848960  0.59057627
    Config     207  -0.62425098  0.38968929
    Config     215   0.04011349  0.00160909
 Total coeff printed             0.99319622
  
State  206 42.3955     CI coeff  CI percent
    Config     107   0.11640469  0.01355005
    Config     109   0.20255306  0.04102774
    Config     120  -0.06813964  0.00464301
    Config     138   0.04745114  0.00225161
    Config     151  -0.10560337  0.01115207
    Config     194   0.04427662  0.00196042
    Config     199   0.45509557  0.20711198
    Config     201   0.79191146  0.62712376
    Config     205  -0.25374717  0.06438763
    Config     223  -0.13665819  0.01867546
    Config     235  -0.05330929  0.00284188
 Total coeff printed             0.99472562
  
State  207 42.4660     CI coeff  CI percent
    Config      27   0.04195265  0.00176002
    Config     100   0.06815991  0.00464577
    Config     165  -0.08385607  0.00703184
    Config     170   0.05800931  0.00336508
    Config     172  -0.13110801  0.01718931
    Config     211  -0.97557545  0.95174746
    Config     220   0.05587938  0.00312251
    Config     234  -0.06415824  0.00411628
    Config     236  -0.05679094  0.00322521
 Total coeff printed             0.99620349
  
State  208 42.5056     CI coeff  CI percent
    Config     129   0.05766358  0.00332509
    Config     143  -0.21021191  0.04418905
    Config     155   0.07539454  0.00568434
    Config     204   0.11465458  0.01314567
    Config     208   0.95778979  0.91736128
    Config     229   0.08280762  0.00685710
    Config     233  -0.07280780  0.00530098
 Total coeff printed             0.99586350
  
State  209 42.5860     CI coeff  CI percent
    Config      39  -0.05185180  0.00268861
    Config     144   0.05284271  0.00279235
    Config     150   0.05199421  0.00270340
    Config     162  -0.07735012  0.00598304
    Config     168   0.07155011  0.00511942
    Config     206  -0.42601881  0.18149202
    Config     207   0.52677159  0.27748831
    Config     213   0.72047728  0.51908751
 Total coeff printed             0.99735465
  
State  210 42.6029     CI coeff  CI percent
    Config      39   0.04691595  0.00220111
    Config     144  -0.04971526  0.00247161
    Config     150   0.05250767  0.00275706
    Config     162   0.07108687  0.00505334
    Config     168  -0.06431722  0.00413670
    Config     206  -0.47136143  0.22218160
    Config     207   0.55406821  0.30699159
    Config     213  -0.66893231  0.44747044
    Config     215  -0.05526667  0.00305440
 Total coeff printed             0.99631785
  
State  211 43.1585     CI coeff  CI percent
    Config      49   0.05409116  0.00292585
    Config      51  -0.05227716  0.00273290
    Config      62  -0.08180944  0.00669279
    Config     109   0.06517824  0.00424820
    Config     120   0.23511546  0.05527928
    Config     138  -0.10894532  0.01186908
    Config     151  -0.13719455  0.01882235
    Config     194   0.10052003  0.01010428
    Config     201   0.24155958  0.05835103
    Config     205   0.89558725  0.80207652
    Config     223  -0.13740639  0.01888052
    Config     225  -0.04689730  0.00219936
    Config     235   0.04157976  0.00172888
 Total coeff printed             0.99591103
  
State  212 43.2796     CI coeff  CI percent
    Config     189  -0.43979599  0.19342051
    Config     214  -0.89477776  0.80062724
    Config     227   0.04432377  0.00196460
 Total coeff printed             0.99601235
  
State  213 43.3141     CI coeff  CI percent
    Config     161  -0.07054044  0.00497595
    Config     191   0.05229051  0.00273430
    Config     207   0.05542781  0.00307224
    Config     215   0.97092749  0.94270018
    Config     224   0.19884839  0.03954068
 Total coeff printed             0.99302336
  
State  214 43.3363     CI coeff  CI percent
    Config     177  -0.12429301  0.01544875
    Config     216   0.81128867  0.65818930
    Config     217  -0.56765231  0.32222914
 Total coeff printed             0.99586720
  
State  215 43.5316     CI coeff  CI percent
    Config     153   0.04051983  0.00164186
    Config     193   0.35524903  0.12620187
    Config     209  -0.59546981  0.35458429
    Config     218   0.59649306  0.35580397
    Config     219   0.15289046  0.02337549
    Config     221   0.36505197  0.13326294
 Total coeff printed             0.99487043
  
State  216 43.5867     CI coeff  CI percent
    Config     175  -0.05140086  0.00264205
    Config     193   0.33338231  0.11114376
    Config     209  -0.56457877  0.31874919
    Config     218  -0.40129549  0.16103807
    Config     219  -0.49702137  0.24703024
    Config     221  -0.38890652  0.15124828
    Config     226   0.05634151  0.00317437
 Total coeff printed             0.99502596
  
State  217 43.9800     CI coeff  CI percent
    Config      55  -0.04990735  0.00249074
    Config     171   0.05412629  0.00292965
    Config     175   0.18846580  0.03551936
    Config     193  -0.13739000  0.01887601
    Config     209   0.24025101  0.05772055
    Config     218   0.50600790  0.25604399
    Config     219  -0.76298845  0.58215138
    Config     226   0.20622667  0.04252944
 Total coeff printed             0.99826112
  
State  218 44.1248     CI coeff  CI percent
    Config     147   0.04435315  0.00196720
    Config     164  -0.04206677  0.00176961
    Config     177  -0.07500003  0.00562500
    Config     216  -0.57699869  0.33292749
    Config     217  -0.80916038  0.65474052
 Total coeff printed             0.99702983
  
State  219 44.3669     CI coeff  CI percent
    Config     185  -0.12421819  0.01543016
    Config     192  -0.09950844  0.00990193
    Config     194  -0.04956459  0.00245665
    Config     223   0.08912183  0.00794270
    Config     225  -0.94610516  0.89511497
    Config     240   0.25299097  0.06400443
 Total coeff printed             0.99485084
  
State  220 44.4156     CI coeff  CI percent
    Config     218  -0.44182928  0.19521311
    Config     219  -0.29851883  0.08911349
    Config     221   0.84505697  0.71412129
 Total coeff printed             0.99844789
  
State  221 45.4143     CI coeff  CI percent
    Config     124   0.15926588  0.02536562
    Config     161  -0.04610492  0.00212566
    Config     215   0.19908895  0.03963641
    Config     224  -0.96250382  0.92641360
 Total coeff printed             0.99354130
  
State  222 45.4578     CI coeff  CI percent
    Config     156   0.04322813  0.00186867
    Config     171  -0.20143133  0.04057458
    Config     218   0.10736375  0.01152698
    Config     219  -0.20162958  0.04065449
    Config     226  -0.95067671  0.90378621
 Total coeff printed             0.99841093
  
State  223 45.5857     CI coeff  CI percent
    Config      77  -0.05353957  0.00286649
    Config     141  -0.24637319  0.06069975
    Config     186   0.08040250  0.00646456
    Config     187   0.10568508  0.01116934
    Config     222  -0.95216220  0.90661286
    Config     237  -0.06858612  0.00470406
    Config     238   0.05729932  0.00328321
 Total coeff printed             0.99580025
  
State  224 45.8460     CI coeff  CI percent
    Config     195   0.08999928  0.00809987
    Config     196   0.07407197  0.00548666
    Config     214  -0.04654667  0.00216659
    Config     227  -0.99014888  0.98039481
 Total coeff printed             0.99614793
  
State  225 46.0291     CI coeff  CI percent
    Config     200  -0.08087037  0.00654002
    Config     228   0.99406492  0.98816506
 Total coeff printed             0.99470507
  
State  226 46.1713     CI coeff  CI percent
    Config      85  -0.19958549  0.03983437
    Config     183  -0.40870352  0.16703857
    Config     220   0.83375364  0.69514513
    Config     234   0.30215671  0.09129868
    Config     236   0.05208647  0.00271300
 Total coeff printed             0.99602974
  
State  227 46.2670     CI coeff  CI percent
    Config     204   0.04617449  0.00213208
    Config     208   0.07842672  0.00615075
    Config     229  -0.99461274  0.98925450
 Total coeff printed             0.99753734
  
State  228 46.9692     CI coeff  CI percent
    Config     121   0.10863863  0.01180235
    Config     128  -0.09802729  0.00960935
    Config     134   0.04165148  0.00173485
    Config     174  -0.09048914  0.00818828
    Config     190   0.05898235  0.00347892
    Config     210   0.28163236  0.07931679
    Config     212   0.18371569  0.03375146
    Config     231   0.91786152  0.84246976
    Config     239   0.06633981  0.00440097
 Total coeff printed             0.99475272
  
State  229 47.9342     CI coeff  CI percent
    Config      74   0.06572564  0.00431986
    Config     204   0.10296293  0.01060136
    Config     208  -0.09103518  0.00828740
    Config     233  -0.98734973  0.97485949
 Total coeff printed             0.99806812
  
State  230 47.9704     CI coeff  CI percent
    Config     146  -0.16286245  0.02652418
    Config     196  -0.06950761  0.00483131
    Config     232   0.98184197  0.96401366
 Total coeff printed             0.99536914
  
State  231 48.3702     CI coeff  CI percent
    Config     159   0.27957876  0.07816429
    Config     163  -0.29314647  0.08593486
    Config     186   0.05005905  0.00250591
    Config     230   0.88686436  0.78652840
    Config     237   0.20543710  0.04220440
 Total coeff printed             0.99533785
  
State  232 49.1638     CI coeff  CI percent
    Config      51   0.11427877  0.01305964
    Config     142  -0.23203066  0.05383823
    Config     151   0.21101998  0.04452943
    Config     152   0.25210958  0.06355924
    Config     185   0.12741757  0.01623524
    Config     194  -0.37763013  0.14260451
    Config     223  -0.55795526  0.31131407
    Config     225  -0.04310612  0.00185814
    Config     235   0.59054249  0.34874044
 Total coeff printed             0.99573893
  
State  233 49.6240     CI coeff  CI percent
    Config      85   0.05648444  0.00319049
    Config     165   0.04992728  0.00249273
    Config     183   0.10098976  0.01019893
    Config     211  -0.09213656  0.00848915
    Config     220  -0.16668377  0.02778348
    Config     234   0.49342145  0.24346473
    Config     236   0.83701429  0.70059292
 Total coeff printed             0.99621243
  
State  234 49.7609     CI coeff  CI percent
    Config      71  -0.18301767  0.03349547
    Config     121  -0.21565937  0.04650896
    Config     128   0.27957297  0.07816104
    Config     174   0.34840397  0.12138533
    Config     184   0.06500348  0.00422545
    Config     210  -0.47531594  0.22592524
    Config     212  -0.57549670  0.33119645
    Config     231   0.33809327  0.11430706
    Config     239   0.20725104  0.04295299
 Total coeff printed             0.99815800
  
State  235 50.3544     CI coeff  CI percent
    Config      85   0.07016745  0.00492347
    Config     170  -0.05195400  0.00269922
    Config     183   0.12279221  0.01507793
    Config     220  -0.18186267  0.03307403
    Config     234   0.80698424  0.65122356
    Config     236  -0.53635654  0.28767833
 Total coeff printed             0.99467654
  
State  236 51.2313     CI coeff  CI percent
    Config      51  -0.08453563  0.00714627
    Config     142   0.16944234  0.02871071
    Config     151  -0.17576265  0.03089251
    Config     152  -0.22951288  0.05267616
    Config     185   0.20843288  0.04344427
    Config     194   0.23553028  0.05547451
    Config     201   0.07543534  0.00569049
    Config     205  -0.05607737  0.00314467
    Config     223   0.43127792  0.18600065
    Config     235   0.74972557  0.56208843
    Config     240  -0.14742764  0.02173491
 Total coeff printed             0.99700358
  
State  237 52.7520     CI coeff  CI percent
    Config     159  -0.04305796  0.00185399
    Config     163   0.06865368  0.00471333
    Config     186  -0.04876485  0.00237801
    Config     202   0.15282038  0.02335407
    Config     203  -0.19353007  0.03745389
    Config     222  -0.09067495  0.00822195
    Config     230  -0.13183234  0.01737977
    Config     237   0.57694441  0.33286485
    Config     238  -0.75306615  0.56710863
 Total coeff printed             0.99532848
  
State  238 53.4585     CI coeff  CI percent
    Config     163   0.07170960  0.00514227
    Config     202   0.19548902  0.03821596
    Config     203   0.15466442  0.02392108
    Config     230  -0.11773087  0.01386056
    Config     237   0.74180617  0.55027640
    Config     238   0.60070441  0.36084579
 Total coeff printed             0.99226206
  
State  239 53.4811     CI coeff  CI percent
    Config     121  -0.06334055  0.00401203
    Config     128   0.06296817  0.00396499
    Config     174   0.05243572  0.00274950
    Config     210  -0.11519457  0.01326979
    Config     212  -0.07757469  0.00601783
    Config     231   0.14412802  0.02077288
    Config     239  -0.97251511  0.94578565
 Total coeff printed             0.99657267
  
State  240 56.6229     CI coeff  CI percent
    Config     192   0.04546642  0.00206720
    Config     194   0.06372824  0.00406129
    Config     225   0.24759637  0.06130396
    Config     235   0.12880993  0.01659200
    Config     240   0.95324111  0.90866862
 Total coeff printed             0.99269307
  

 -------------------------------------------------------------------------------
 1SCF INDO MRCI C.A.S.=(4,2) C.I.=8
 comment1
 comment2


     1SCF WAS SPECIFIED, SO BFGS WAS NOT USED                 
     SCF FIELD WAS ACHIEVED                                   


                              INDO CALCULATION
                                                       MOPAC v22.0.6 MacOS
                                                       Fri Jul 14 12:16:22 2023


          COSMO AREA              =         71.45 SQUARE ANGSTROMS
          COSMO VOLUME            =         53.18 CUBIC ANGSTROMS

          IONIZATION POTENTIAL    =          9.985662 EV
          HOMO LUMO ENERGIES (EV) =         -9.986  1.352
          NO. OF FILLED LEVELS    =          6
          MOLECULAR WEIGHT        =         28.0536         POINT GROUP:  D2h 

          MOLECULAR DIMENSIONS (Angstroms)

            Atom       Atom       Distance
            H     5    H     4     3.08402
            H     6    H     3     2.96729
            C     1    C     2     0.00000


          SCF CALCULATIONS        =          1

          WALL-CLOCK TIME         =      4.043 SECONDS
          COMPUTATION TIME        =      4.775 SECONDS




   ATOM   CHEMICAL          X               Y               Z
  NUMBER   SYMBOL      (ANGSTROMS)     (ANGSTROMS)     (ANGSTROMS)

     1       C         -0.67000000  *   0.00000000  *   0.00000000  *
     2       C          0.67000000  *   0.00000000  *   0.00000000  *
     3       H         -1.23000000  *  -0.93000000  *   0.00000000  *
     4       H         -1.23000000  *   0.93000000  *   0.00000000  *
     5       H          1.23000000  *  -0.93000000  *   0.00000000  *
     6       H          1.23000000  *   0.93000000  *   0.00000000  *

                             CARTESIAN COORDINATES

   1    C       -0.670000000     0.000000000     0.000000000
   2    C        0.670000000     0.000000000     0.000000000
   3    H       -1.230000000    -0.930000000     0.000000000
   4    H       -1.230000000     0.930000000     0.000000000
   5    H        1.230000000    -0.930000000     0.000000000
   6    H        1.230000000     0.930000000     0.000000000


           Empirical Formula: C2 H4  =     6 atoms



      MOLECULAR POINT GROUP   :   D2h 


                  EIGENVALUES  
 -35.21189 -24.10511 -19.53313 -16.07585 -13.53540  -9.98566   1.35164   3.79059
   5.06352   7.33858   7.93711  10.85409


              NET ATOMIC CHARGES AND DIPOLE CONTRIBUTIONS

  ATOM NO.   TYPE          CHARGE      No. of ELECS.   s-Pop       p-Pop       
    1          C          -0.058134        4.0581     1.10971     2.94843
    2          C          -0.058134        4.0581     1.10971     2.94843
    3          H           0.029067        0.9709     0.97093
    4          H           0.029067        0.9709     0.97093
    5          H           0.029067        0.9709     0.97093
    6          H           0.029067        0.9709     0.97093
 DIPOLE           X         Y         Z       TOTAL
 POINT-CHG.     0.000     0.000     0.000     0.000
 HYBRID        -0.000    -0.000     0.000     0.000
 SUM            0.000     0.000     0.000     0.000


          ATOMIC ORBITAL ELECTRON POPULATIONS

     Atom    s        px        py        pz   
    1  C   1.10971   0.98732   0.96110   1.00000
    2  C   1.10971   0.98732   0.96110   1.00000
    3  H   0.97093
    4  H   0.97093
    5  H   0.97093
    6  H   0.97093

 **********************
 *                    *
 * JOB ENDED NORMALLY *
 *                    *
 **********************



 TOTAL JOB TIME:             6.29 SECONDS

 == MOPAC DONE ==
