 *******************************************************************************
 **                                                                           **
 **                              MOPAC v22.0.6                                **
 **                                                                           **
 *******************************************************************************
 **          Digital Object Identifier (DOI): 10.5281/zenodo.6511958          **
 **    Visit the DOI location for information on how to cite this program.    **
 *******************************************************************************

                              INDO CALCULATION RESULTS

 *******************************************************************************
 *  CALCULATION DONE:                                Wed Jul 12 16:26:00 2023  *
 *  INDO       - The INDO Hamiltonian to be used
 *  CISD       - C.I. USES 1 AND 2 ELECTRON EXCITATIONS
 *  C.I.=4     - 4 M.O.S TO BE USED IN C.I.
 *  1SCF       - DO 1 SCF AND THEN STOP 
 *  T=         - A TIME OF 172800.0 SECONDS REQUESTED
 *  DUMP=N     - RESTART FILE WRITTEN EVERY 7200.0 SECONDS REQUESTED
 *******************************************************************************
1SCF INDO CISD C.I.=4
 comment1
 comment2
   ATOM   CHEMICAL          X               Y               Z
  NUMBER   SYMBOL      (ANGSTROMS)     (ANGSTROMS)     (ANGSTROMS)

     1       C         -0.67000000  *   0.00000000  *   0.00000000  *
     2       C          0.67000000  *   0.00000000  *   0.00000000  *
     3       H         -1.23000000  *  -0.93000000  *   0.00000000  *
     4       H         -1.23000000  *   0.93000000  *   0.00000000  *
     5       H          1.23000000  *  -0.93000000  *   0.00000000  *
     6       H          1.23000000  *   0.93000000  *   0.00000000  *



          CARTESIAN COORDINATES 

    NO.       ATOM           X           Y           Z

     1         C         -0.6700      0.0000      0.0000
     2         C          0.6700      0.0000      0.0000
     3         H         -1.2300     -0.9300      0.0000
     4         H         -1.2300      0.9300      0.0000
     5         H          1.2300     -0.9300      0.0000
     6         H          1.2300      0.9300      0.0000

           Empirical Formula: C2 H4  =     6 atoms



      MOLECULAR POINT GROUP   :   D2h 


      RHF CALCULATION, NO. OF DOUBLY OCCUPIED LEVELS = 6


 Summary of symmetry occupancy in each shell:

 SHELL     
    1    6
    v    6
 TOTAL  12


                     MOLECULAR ORBITALS 






    ROOT NO.    1           2           3           4           5           6

           -35.21189   -24.10511   -19.53313   -16.07585   -13.53540    -9.98566
  
  
  S  C   1   0.59643    -0.44544     0.00000     0.02664    -0.00000    -0.00000
 PX  C   1   0.16828     0.29758     0.00000     0.61383     0.00000    -0.00000
 PY  C   1  -0.00000     0.00000     0.51977    -0.00000    -0.45868    -0.00000
 PZ  C   1   0.00000    -0.00000     0.00000     0.00000     0.00000     0.70711
  
  S  C   2   0.59643     0.44544     0.00000     0.02664     0.00000     0.00000
 PX  C   2  -0.16828     0.29758    -0.00000    -0.61383     0.00000     0.00000
 PY  C   2  -0.00000    -0.00000     0.51977    -0.00000     0.45868    -0.00000
 PZ  C   2   0.00000    -0.00000     0.00000     0.00000     0.00000     0.70711
  
  S  H   3   0.24078    -0.32637    -0.33900    -0.24749     0.38053     0.00000
  
  S  H   4   0.24078    -0.32637     0.33900    -0.24749    -0.38053     0.00000
  
  S  H   5   0.24078     0.32637    -0.33900    -0.24749    -0.38053     0.00000
  
  S  H   6   0.24078     0.32637     0.33900    -0.24749     0.38053    -0.00000




    ROOT NO.    7           8           9          10          11          12

             1.35164     3.79059     5.06352     7.33858     7.93711    10.85409
  
  
  S  C   1  -0.00000     0.52298     0.37890     0.00000    -0.00000     0.16755
 PX  C   1   0.00000     0.04854    -0.30805    -0.00000    -0.00000     0.63960
 PY  C   1  -0.00000    -0.00000    -0.00000     0.47941    -0.53815    -0.00000
 PZ  C   1  -0.70711    -0.00000    -0.00000    -0.00000    -0.00000     0.00000
  
  S  C   2   0.00000    -0.52298     0.37890     0.00000     0.00000    -0.16755
 PX  C   2  -0.00000     0.04854     0.30805     0.00000    -0.00000     0.63960
 PY  C   2  -0.00000     0.00000    -0.00000     0.47941     0.53815     0.00000
 PZ  C   2   0.70711     0.00000     0.00000     0.00000    -0.00000    -0.00000
  
  S  H   3   0.00000    -0.33476    -0.36163     0.36753    -0.32434     0.17725
  
  S  H   4   0.00000    -0.33476    -0.36163    -0.36753     0.32434     0.17725
  
  S  H   5   0.00000     0.33476    -0.36163     0.36753     0.32434    -0.17725
  
  S  H   6  -0.00000     0.33476    -0.36163    -0.36753    -0.32434    -0.17725


 Reference determinate nber   1 is ALPHA 1 -   6
 SINGLE excitations FROM orbs   5 to   6 INTO orbs   7 to   8
 DOUBLE excitations FROM orbs   5 to   6 INTO orbs   7 to   8


 CI excitations=   15:        = 15
 The lowest   15 spin-adapted configurations of multiplicity=  1
     sym   eV   cm**-1 -dets- dipole oscilator X FRAG ....Excitations named from first reference determinate
                       tot  #  Debye  strength

   1     -0.000      0.  1  1  0.0000 0.000000 0  0 (        )->(           )
   2      7.706  62149.  2  1  0.0000 0.000000 1  1 (   6    )->(   8       )
   3      8.211  66230.  2  1  0.0000 0.000000 1  1 (   5    )->(   7       )
   4      8.301  66952.  2  1  0.0000 0.652022 1  1 (   6    )->(   7       )
   5     10.738  86611.  1  1  0.0000 0.000000 2  0 (   6   6)->(   7   7   )
   6     12.222  98581.  2  1  0.0000 0.131938 1  1 (   5    )->(   8       )
   7     13.075 105455.  2  1  0.0000 0.000000 2  1 (   6   6)->(   7   8   )
   8     13.581 109535.  2  1  0.0000 0.000000 2  1 (   5   6)->(   7   7   )
   9     14.566 117485.  6  1  0.0000 0.000000 2  1 (   5   6)->(   7   8   )
  10     15.232 122855.  1  1  0.0000 0.000000 2  0 (   6   6)->(   8   8   )
  11     17.952 144792.  1  1  0.0000 0.000000 2  0 (   5   5)->(   7   7   )
  12     18.351 148015.  2  1  0.0000 0.000000 2  1 (   5   6)->(   8   8   )
  13     20.523 165532.  6  2  0.0000 0.000000 2  1 (   5   6)->(   7   8   )
  14     20.565 165872.  2  1  0.0000 0.000000 2  1 (   5   5)->(   7   8   )
  15     23.000 185508.  1  1  0.0000 0.000000 2  0 (   5   5)->(   8   8   )

 Depression of ground-state after CI=      -6339. cm**-1 Energy=  -378.5496939 eV
 Dipole moment=  0.000000  0.000000  0.000000 tot=  0.000000 Debyes


  CI trans.  energy frequency wavelength oscillator--------- polarization---------  dipole  ------ components-----
 st.  symm.    eV      cm - 1       nm      strength       x          y         z       moment     x       y       z 

   2      8.4914285    68488.    146.01  0.000000                                   0.000000   0.000   0.000  -0.000
   3      8.9973505    72569.    137.80  0.000000                                   0.000000   0.000   0.000   0.000
   4      9.0868574    73291.    136.44  0.373910  -1.000000  -0.000000   0.000000  0.000000  -0.000   0.000   0.000
   5     12.1177167    97736.    102.32  0.000000                                   0.000000   0.000   0.000  -0.000
   6     13.0083331   104920.     95.31  0.123191   0.000000  -1.000000   0.000000  0.000000   0.000   0.000   0.000
   7     13.8588943   111780.     89.46  0.021765   0.000000  -0.000000  -1.000000  0.000000   0.000   0.000  -0.000
   8     14.2847168   115214.     86.79  0.000000                                   0.000000   0.000   0.000   0.000
   9     15.3522065   123824.     80.76  0.000000                                   0.000000   0.000   0.000  -0.000
  10     16.1771364   130478.     76.64  0.000000                                   0.000000   0.000   0.000   0.000
  11     18.6623940   150523.     66.44  0.000000                                   0.000000   0.000   0.000   0.000
  12     19.2192150   155014.     64.51  0.000000                                   0.000000   0.000   0.000   0.000
  13     21.3092666   171871.     58.18  0.000000                                   0.000000   0.000   0.000   0.000
  14     21.3531141   172225.     58.06  0.000703   0.000000  -0.000000  -1.000000  0.000000   0.000   0.000   0.000
  15     23.8946712   192724.     51.89  0.000000                                   0.000000   0.000   0.000  -0.000

 Polarizability (au  ) xx=   10.06 xy=   -0.00 yy=    1.62 xz=   -0.00 yz=   -0.00 zz=    0.26
 Polarizability (A**3) xx=    1.49 xy=   -0.00 yy=    0.24 xz=   -0.00 yz=   -0.00 zz=    0.04


 Major CI contributions to CI states

State    1  0.0000     CI coeff  CI percent
    Config       1  -0.96861963  0.93822398
    Config       5   0.24483538  0.05994437
 Total coeff printed             0.99816834
  
State    2  8.4914     CI coeff  CI percent
    Config       2   1.00000000  1.00000000
 Total coeff printed             1.00000000
  
State    3  8.9974     CI coeff  CI percent
    Config       3   1.00000000  1.00000000
 Total coeff printed             1.00000000
  
State    4  9.0869     CI coeff  CI percent
    Config       4  -1.00000000  1.00000000
 Total coeff printed             1.00000000
  
State    5 12.1177     CI coeff  CI percent
    Config       1  -0.23474012  0.05510292
    Config       5  -0.95273065  0.90769569
    Config      10   0.19147891  0.03666417
 Total coeff printed             0.99946278
  
State    6 13.0083     CI coeff  CI percent
    Config       6  -1.00000000  1.00000000
 Total coeff printed             1.00000000
  
State    7 13.8589     CI coeff  CI percent
    Config       7  -0.99988455  0.99976911
 Total coeff printed             0.99976911
  
State    8 14.2847     CI coeff  CI percent
    Config       8   0.99167375  0.98341682
    Config      12   0.12877570  0.01658318
 Total coeff printed             1.00000000
  
State    9 15.3522     CI coeff  CI percent
    Config       9  -1.00000000  1.00000000
 Total coeff printed             1.00000000
  
State   10 16.1771     CI coeff  CI percent
    Config       1   0.07304400  0.00533543
    Config       5   0.17873308  0.03194551
    Config      10   0.98092320  0.96221033
 Total coeff printed             0.99949127
  
State   11 18.6624     CI coeff  CI percent
    Config      11   0.99229586  0.98465108
    Config      15  -0.12261460  0.01503434
 Total coeff printed             0.99968542
  
State   12 19.2192     CI coeff  CI percent
    Config       8   0.12877570  0.01658318
    Config      12  -0.99167375  0.98341682
 Total coeff printed             1.00000000
  
State   13 21.3093     CI coeff  CI percent
    Config      13   1.00000000  1.00000000
 Total coeff printed             1.00000000
  
State   14 21.3531     CI coeff  CI percent
    Config      14   0.99988455  0.99976911
 Total coeff printed             0.99976911
  
State   15 23.8947     CI coeff  CI percent
    Config      11   0.12221191  0.01493575
    Config      15   0.99161439  0.98329910
 Total coeff printed             0.99823485
  

 -------------------------------------------------------------------------------
 1SCF INDO CISD C.I.=4
 comment1
 comment2


     1SCF WAS SPECIFIED, SO BFGS WAS NOT USED                 
     SCF FIELD WAS ACHIEVED                                   


                              INDO CALCULATION
                                                       MOPAC v22.0.6 MacOS
                                                       Wed Jul 12 16:26:00 2023


          COSMO AREA              =         71.45 SQUARE ANGSTROMS
          COSMO VOLUME            =         53.18 CUBIC ANGSTROMS

          IONIZATION POTENTIAL    =          9.985662 EV
          HOMO LUMO ENERGIES (EV) =         -9.986  1.352
          NO. OF FILLED LEVELS    =          6
          MOLECULAR WEIGHT        =         28.0536         POINT GROUP:  D2h 

          MOLECULAR DIMENSIONS (Angstroms)

            Atom       Atom       Distance
            H     5    H     4     3.08402
            H     6    H     3     2.96729
            C     1    C     2     0.00000


          SCF CALCULATIONS        =          1

          WALL-CLOCK TIME         =      0.047 SECONDS
          COMPUTATION TIME        =      0.048 SECONDS




   ATOM   CHEMICAL          X               Y               Z
  NUMBER   SYMBOL      (ANGSTROMS)     (ANGSTROMS)     (ANGSTROMS)

     1       C         -0.67000000  *   0.00000000  *   0.00000000  *
     2       C          0.67000000  *   0.00000000  *   0.00000000  *
     3       H         -1.23000000  *  -0.93000000  *   0.00000000  *
     4       H         -1.23000000  *   0.93000000  *   0.00000000  *
     5       H          1.23000000  *  -0.93000000  *   0.00000000  *
     6       H          1.23000000  *   0.93000000  *   0.00000000  *

                             CARTESIAN COORDINATES

   1    C       -0.670000000     0.000000000     0.000000000
   2    C        0.670000000     0.000000000     0.000000000
   3    H       -1.230000000    -0.930000000     0.000000000
   4    H       -1.230000000     0.930000000     0.000000000
   5    H        1.230000000    -0.930000000     0.000000000
   6    H        1.230000000     0.930000000     0.000000000


           Empirical Formula: C2 H4  =     6 atoms



      MOLECULAR POINT GROUP   :   D2h 


                  EIGENVALUES  
 -35.21189 -24.10511 -19.53313 -16.07585 -13.53540  -9.98566   1.35164   3.79059
   5.06352   7.33858   7.93711  10.85409


              NET ATOMIC CHARGES AND DIPOLE CONTRIBUTIONS

  ATOM NO.   TYPE          CHARGE      No. of ELECS.   s-Pop       p-Pop       
    1          C          -0.058134        4.0581     1.10971     2.94843
    2          C          -0.058134        4.0581     1.10971     2.94843
    3          H           0.029067        0.9709     0.97093
    4          H           0.029067        0.9709     0.97093
    5          H           0.029067        0.9709     0.97093
    6          H           0.029067        0.9709     0.97093
 DIPOLE           X         Y         Z       TOTAL
 POINT-CHG.     0.000     0.000     0.000     0.000
 HYBRID        -0.000    -0.000     0.000     0.000
 SUM            0.000     0.000     0.000     0.000


          ATOMIC ORBITAL ELECTRON POPULATIONS

     Atom    s        px        py        pz   
    1  C   1.10971   0.98732   0.96110   1.00000
    2  C   1.10971   0.98732   0.96110   1.00000
    3  H   0.97093
    4  H   0.97093
    5  H   0.97093
    6  H   0.97093
 *******************************************************************************
 **                                                                           **
 **                              MOPAC v22.0.6                                **
 **                                                                           **
 *******************************************************************************
 **          Digital Object Identifier (DOI): 10.5281/zenodo.6511958          **
 **    Visit the DOI location for information on how to cite this program.    **
 *******************************************************************************

                              INDO CALCULATION RESULTS

 *******************************************************************************
 *  CALCULATION DONE:                                Wed Jul 12 16:26:00 2023  *
 *  INDO       - The INDO Hamiltonian to be used
 *  CISD       - C.I. USES 1 AND 2 ELECTRON EXCITATIONS
 *  C.I.D.=N   - 2 M.O.S TO BE USED IN CI DOUBLES
 *  C.I.=4     - 4 M.O.S TO BE USED IN C.I.
 *  1SCF       - DO 1 SCF AND THEN STOP 
 *  T=         - A TIME OF 172800.0 SECONDS REQUESTED
 *  DUMP=N     - RESTART FILE WRITTEN EVERY 7200.0 SECONDS REQUESTED
 *******************************************************************************
1SCF INDO CISD C.I.=4 C.I.D.=2
 comment1
 comment2
   ATOM   CHEMICAL          X               Y               Z
  NUMBER   SYMBOL      (ANGSTROMS)     (ANGSTROMS)     (ANGSTROMS)

     1       C         -0.67000000  *   0.00000000  *   0.00000000  *
     2       C          0.67000000  *   0.00000000  *   0.00000000  *
     3       H         -1.23000000  *  -0.93000000  *   0.00000000  *
     4       H         -1.23000000  *   0.93000000  *   0.00000000  *
     5       H          1.23000000  *  -0.93000000  *   0.00000000  *
     6       H          1.23000000  *   0.93000000  *   0.00000000  *



          CARTESIAN COORDINATES 

    NO.       ATOM           X           Y           Z

     1         C         -0.6700      0.0000      0.0000
     2         C          0.6700      0.0000      0.0000
     3         H         -1.2300     -0.9300      0.0000
     4         H         -1.2300      0.9300      0.0000
     5         H          1.2300     -0.9300      0.0000
     6         H          1.2300      0.9300      0.0000

           Empirical Formula: C2 H4  =     6 atoms



      MOLECULAR POINT GROUP   :   D2h 


      RHF CALCULATION, NO. OF DOUBLY OCCUPIED LEVELS = 6


 Summary of symmetry occupancy in each shell:

 SHELL     
    1    6
    v    6
 TOTAL  12


                     MOLECULAR ORBITALS 






    ROOT NO.    1           2           3           4           5           6

           -35.21189   -24.10511   -19.53313   -16.07585   -13.53540    -9.98566
  
  
  S  C   1   0.59643    -0.44544     0.00000     0.02664    -0.00000    -0.00000
 PX  C   1   0.16828     0.29758     0.00000     0.61383     0.00000    -0.00000
 PY  C   1  -0.00000     0.00000     0.51977    -0.00000    -0.45868    -0.00000
 PZ  C   1   0.00000    -0.00000     0.00000     0.00000     0.00000     0.70711
  
  S  C   2   0.59643     0.44544     0.00000     0.02664     0.00000     0.00000
 PX  C   2  -0.16828     0.29758    -0.00000    -0.61383     0.00000     0.00000
 PY  C   2  -0.00000    -0.00000     0.51977    -0.00000     0.45868    -0.00000
 PZ  C   2   0.00000    -0.00000     0.00000     0.00000     0.00000     0.70711
  
  S  H   3   0.24078    -0.32637    -0.33900    -0.24749     0.38053     0.00000
  
  S  H   4   0.24078    -0.32637     0.33900    -0.24749    -0.38053     0.00000
  
  S  H   5   0.24078     0.32637    -0.33900    -0.24749    -0.38053     0.00000
  
  S  H   6   0.24078     0.32637     0.33900    -0.24749     0.38053    -0.00000




    ROOT NO.    7           8           9          10          11          12

             1.35164     3.79059     5.06352     7.33858     7.93711    10.85409
  
  
  S  C   1  -0.00000     0.52298     0.37890     0.00000    -0.00000     0.16755
 PX  C   1   0.00000     0.04854    -0.30805    -0.00000    -0.00000     0.63960
 PY  C   1  -0.00000    -0.00000    -0.00000     0.47941    -0.53815    -0.00000
 PZ  C   1  -0.70711    -0.00000    -0.00000    -0.00000    -0.00000     0.00000
  
  S  C   2   0.00000    -0.52298     0.37890     0.00000     0.00000    -0.16755
 PX  C   2  -0.00000     0.04854     0.30805     0.00000    -0.00000     0.63960
 PY  C   2  -0.00000     0.00000    -0.00000     0.47941     0.53815     0.00000
 PZ  C   2   0.70711     0.00000     0.00000     0.00000    -0.00000    -0.00000
  
  S  H   3   0.00000    -0.33476    -0.36163     0.36753    -0.32434     0.17725
  
  S  H   4   0.00000    -0.33476    -0.36163    -0.36753     0.32434     0.17725
  
  S  H   5   0.00000     0.33476    -0.36163     0.36753     0.32434    -0.17725
  
  S  H   6  -0.00000     0.33476    -0.36163    -0.36753    -0.32434    -0.17725


 Reference determinate nber   1 is ALPHA 1 -   6
 SINGLE excitations FROM orbs   5 to   6 INTO orbs   7 to   8
 DOUBLE excitations FROM orbs   6 to   6 INTO orbs   7 to   7


 CI excitations=   10:        = 10
 The lowest   10 spin-adapted configurations of multiplicity=  1
     sym   eV   cm**-1 -dets- dipole oscilator X FRAG ....Excitations named from first reference determinate
                       tot  #  Debye  strength

   1     -0.000      0.  1  1  0.0000 0.000000 0  0 (        )->(           )
   2      7.706  62149.  2  1  0.0000 0.000000 1  1 (   6    )->(   8       )
   3      8.211  66230.  2  1  0.0000 0.000000 1  1 (   5    )->(   7       )
   4      8.301  66952.  2  1  0.0000 0.652022 1  1 (   6    )->(   7       )
   5     10.738  86611.  1  1  0.0000 0.000000 2  0 (   6   6)->(   7   7   )
   6     12.222  98581.  2  1  0.0000 0.131938 1  1 (   5    )->(   8       )
   7     13.075 105455.  2  1  0.0000 0.000000 2  1 (   6   6)->(   7   8   )
   8     13.581 109535.  2  1  0.0000 0.000000 2  1 (   5   6)->(   7   7   )
   9     14.566 117485.  6  1  0.0000 0.000000 2  1 (   5   6)->(   7   8   )
  10     20.523 165532.  6  2  0.0000 0.000000 2  1 (   5   6)->(   7   8   )
 
 COSMO corrections to state energies
 State    Diag E (eV)   Uncorr E (eV)   Final E (eV)
     1       -0.74827       -0.74827       -0.74827
     2        7.70550        7.70550        7.70550
     3        8.21143        8.21143        8.21143
     4        8.30093        8.30093        8.30093
     5       11.48666       11.48666       11.48666
     6       12.22241       12.22241       12.22241
     7       13.07470       13.07470       13.07470
     8       13.58062       13.58062       13.58062
     9       14.56628       14.56628       14.56628
    10       20.52334       20.52334       20.52334

 Depression of ground-state after CI=      -6035. cm**-1 Energy=  -378.5120366 eV
 Dipole moment=  0.000000  0.000000  0.000000 tot=  0.000000 Debyes


  CI trans.  energy frequency wavelength oscillator--------- polarization---------  dipole  ------ components-----
 st.  symm.    eV      cm - 1       nm      strength       x          y         z       moment     x       y       z 

   2      8.4537713    68184.    146.66  0.000000                                   0.000000   0.000   0.000  -0.000
   3      8.9596932    72265.    138.38  0.000000                                   0.000000   0.000   0.000  -0.000
   4      9.0492002    72987.    137.01  0.370154  -1.000000   0.000000   0.000000  0.000000  -0.000   0.000   0.000
   5     12.2349255    98682.    101.34  0.000000                                   0.000000   0.000   0.000   0.000
   6     12.9706758   104616.     95.59  0.131452  -0.000000   1.000000  -0.000000  0.000000   0.000   0.000   0.000
   7     13.8229673   111490.     89.69  0.017877  -0.000000   0.000000   1.000000  0.000000   0.000   0.000  -0.000
   8     14.3288893   115571.     86.53  0.000000                                   0.000000   0.000   0.000   0.000
   9     15.3145492   123520.     80.96  0.000000                                   0.000000   0.000   0.000  -0.000
  10     21.2716093   171568.     58.29  0.000000                                   0.000000   0.000   0.000  -0.000

 Polarizability (au  ) xx=   10.04 xy=   -0.00 yy=    1.74 xz=   -0.00 yz=   -0.00 zz=    0.21
 Polarizability (A**3) xx=    1.49 xy=   -0.00 yy=    0.26 xz=   -0.00 yz=   -0.00 zz=    0.03


 Major CI contributions to CI states

State    1  0.0000     CI coeff  CI percent
    Config       1   0.96893846  0.93884174
    Config       5  -0.24730195  0.06115826
 Total coeff printed             1.00000000
  
State    2  8.4538     CI coeff  CI percent
    Config       2   1.00000000  1.00000000
 Total coeff printed             1.00000000
  
State    3  8.9597     CI coeff  CI percent
    Config       3  -1.00000000  1.00000000
 Total coeff printed             1.00000000
  
State    4  9.0492     CI coeff  CI percent
    Config       4   1.00000000  1.00000000
 Total coeff printed             1.00000000
  
State    5 12.2349     CI coeff  CI percent
    Config       1   0.24730195  0.06115826
    Config       5   0.96893846  0.93884174
 Total coeff printed             1.00000000
  
State    6 12.9707     CI coeff  CI percent
    Config       6  -1.00000000  1.00000000
 Total coeff printed             1.00000000
  
State    7 13.8230     CI coeff  CI percent
    Config       7  -1.00000000  1.00000000
 Total coeff printed             1.00000000
  
State    8 14.3289     CI coeff  CI percent
    Config       8   1.00000000  1.00000000
 Total coeff printed             1.00000000
  
State    9 15.3145     CI coeff  CI percent
    Config       9   1.00000000  1.00000000
 Total coeff printed             1.00000000
  
State   10 21.2716     CI coeff  CI percent
    Config      10   1.00000000  1.00000000
 Total coeff printed             1.00000000
  

 -------------------------------------------------------------------------------
 1SCF INDO CISD C.I.=4 C.I.D.=2
 comment1
 comment2


     1SCF WAS SPECIFIED, SO BFGS WAS NOT USED                 
     SCF FIELD WAS ACHIEVED                                   


                              INDO CALCULATION
                                                       MOPAC v22.0.6 MacOS
                                                       Wed Jul 12 16:26:00 2023


          COSMO AREA              =         71.45 SQUARE ANGSTROMS
          COSMO VOLUME            =         53.18 CUBIC ANGSTROMS

          IONIZATION POTENTIAL    =          9.985662 EV
          HOMO LUMO ENERGIES (EV) =         -9.986  1.352
          NO. OF FILLED LEVELS    =          6
          MOLECULAR WEIGHT        =         28.0536         POINT GROUP:  D2h 

          MOLECULAR DIMENSIONS (Angstroms)

            Atom       Atom       Distance
            H     5    H     4     3.08402
            H     6    H     3     2.96729
            C     1    C     2     0.00000


          SCF CALCULATIONS        =          1

          WALL-CLOCK TIME         =      0.066 SECONDS
          COMPUTATION TIME        =      0.127 SECONDS




   ATOM   CHEMICAL          X               Y               Z
  NUMBER   SYMBOL      (ANGSTROMS)     (ANGSTROMS)     (ANGSTROMS)

     1       C         -0.67000000  *   0.00000000  *   0.00000000  *
     2       C          0.67000000  *   0.00000000  *   0.00000000  *
     3       H         -1.23000000  *  -0.93000000  *   0.00000000  *
     4       H         -1.23000000  *   0.93000000  *   0.00000000  *
     5       H          1.23000000  *  -0.93000000  *   0.00000000  *
     6       H          1.23000000  *   0.93000000  *   0.00000000  *

                             CARTESIAN COORDINATES

   1    C       -0.670000000     0.000000000     0.000000000
   2    C        0.670000000     0.000000000     0.000000000
   3    H       -1.230000000    -0.930000000     0.000000000
   4    H       -1.230000000     0.930000000     0.000000000
   5    H        1.230000000    -0.930000000     0.000000000
   6    H        1.230000000     0.930000000     0.000000000


           Empirical Formula: C2 H4  =     6 atoms



      MOLECULAR POINT GROUP   :   D2h 


                  EIGENVALUES  
 -35.21189 -24.10511 -19.53313 -16.07585 -13.53540  -9.98566   1.35164   3.79059
   5.06352   7.33858   7.93711  10.85409


              NET ATOMIC CHARGES AND DIPOLE CONTRIBUTIONS

  ATOM NO.   TYPE          CHARGE      No. of ELECS.   s-Pop       p-Pop       
    1          C          -0.058134        4.0581     1.10971     2.94843
    2          C          -0.058134        4.0581     1.10971     2.94843
    3          H           0.029067        0.9709     0.97093
    4          H           0.029067        0.9709     0.97093
    5          H           0.029067        0.9709     0.97093
    6          H           0.029067        0.9709     0.97093
 DIPOLE           X         Y         Z       TOTAL
 POINT-CHG.     0.000     0.000     0.000     0.000
 HYBRID        -0.000    -0.000     0.000     0.000
 SUM            0.000     0.000     0.000     0.000


          ATOMIC ORBITAL ELECTRON POPULATIONS

     Atom    s        px        py        pz   
    1  C   1.10971   0.98732   0.96110   1.00000
    2  C   1.10971   0.98732   0.96110   1.00000
    3  H   0.97093
    4  H   0.97093
    5  H   0.97093
    6  H   0.97093
 *******************************************************************************
 **                                                                           **
 **                              MOPAC v22.0.6                                **
 **                                                                           **
 *******************************************************************************
 **          Digital Object Identifier (DOI): 10.5281/zenodo.6511958          **
 **    Visit the DOI location for information on how to cite this program.    **
 *******************************************************************************

                              INDO CALCULATION RESULTS

 *******************************************************************************
 *  CALCULATION DONE:                                Wed Jul 12 16:26:00 2023  *
 *  INDO       - The INDO Hamiltonian to be used
 *  CISD       - C.I. USES 1 AND 2 ELECTRON EXCITATIONS
 * C.I.D.=(N,M)- 1 DOUBLY FILLED LEVELS USED IN A CI DOUBLES INVOLVING 2 M.O.'S
 *  C.I.=4     - 4 M.O.S TO BE USED IN C.I.
 *  1SCF       - DO 1 SCF AND THEN STOP 
 *  T=         - A TIME OF 172800.0 SECONDS REQUESTED
 *  DUMP=N     - RESTART FILE WRITTEN EVERY 7200.0 SECONDS REQUESTED
 *******************************************************************************
1SCF INDO CISD C.I.=4 C.I.D.=(2,1)
 comment1
 comment2
   ATOM   CHEMICAL          X               Y               Z
  NUMBER   SYMBOL      (ANGSTROMS)     (ANGSTROMS)     (ANGSTROMS)

     1       C         -0.67000000  *   0.00000000  *   0.00000000  *
     2       C          0.67000000  *   0.00000000  *   0.00000000  *
     3       H         -1.23000000  *  -0.93000000  *   0.00000000  *
     4       H         -1.23000000  *   0.93000000  *   0.00000000  *
     5       H          1.23000000  *  -0.93000000  *   0.00000000  *
     6       H          1.23000000  *   0.93000000  *   0.00000000  *



          CARTESIAN COORDINATES 

    NO.       ATOM           X           Y           Z

     1         C         -0.6700      0.0000      0.0000
     2         C          0.6700      0.0000      0.0000
     3         H         -1.2300     -0.9300      0.0000
     4         H         -1.2300      0.9300      0.0000
     5         H          1.2300     -0.9300      0.0000
     6         H          1.2300      0.9300      0.0000

           Empirical Formula: C2 H4  =     6 atoms



      MOLECULAR POINT GROUP   :   D2h 


      RHF CALCULATION, NO. OF DOUBLY OCCUPIED LEVELS = 6


 Summary of symmetry occupancy in each shell:

 SHELL     
    1    6
    v    6
 TOTAL  12


                     MOLECULAR ORBITALS 






    ROOT NO.    1           2           3           4           5           6

           -35.21189   -24.10511   -19.53313   -16.07585   -13.53540    -9.98566
  
  
  S  C   1   0.59643    -0.44544     0.00000     0.02664    -0.00000    -0.00000
 PX  C   1   0.16828     0.29758     0.00000     0.61383     0.00000    -0.00000
 PY  C   1  -0.00000     0.00000     0.51977    -0.00000    -0.45868    -0.00000
 PZ  C   1   0.00000    -0.00000     0.00000     0.00000     0.00000     0.70711
  
  S  C   2   0.59643     0.44544     0.00000     0.02664     0.00000     0.00000
 PX  C   2  -0.16828     0.29758    -0.00000    -0.61383     0.00000     0.00000
 PY  C   2  -0.00000    -0.00000     0.51977    -0.00000     0.45868    -0.00000
 PZ  C   2   0.00000    -0.00000     0.00000     0.00000     0.00000     0.70711
  
  S  H   3   0.24078    -0.32637    -0.33900    -0.24749     0.38053     0.00000
  
  S  H   4   0.24078    -0.32637     0.33900    -0.24749    -0.38053     0.00000
  
  S  H   5   0.24078     0.32637    -0.33900    -0.24749    -0.38053     0.00000
  
  S  H   6   0.24078     0.32637     0.33900    -0.24749     0.38053    -0.00000




    ROOT NO.    7           8           9          10          11          12

             1.35164     3.79059     5.06352     7.33858     7.93711    10.85409
  
  
  S  C   1  -0.00000     0.52298     0.37890     0.00000    -0.00000     0.16755
 PX  C   1   0.00000     0.04854    -0.30805    -0.00000    -0.00000     0.63960
 PY  C   1  -0.00000    -0.00000    -0.00000     0.47941    -0.53815    -0.00000
 PZ  C   1  -0.70711    -0.00000    -0.00000    -0.00000    -0.00000     0.00000
  
  S  C   2   0.00000    -0.52298     0.37890     0.00000     0.00000    -0.16755
 PX  C   2  -0.00000     0.04854     0.30805     0.00000    -0.00000     0.63960
 PY  C   2  -0.00000     0.00000    -0.00000     0.47941     0.53815     0.00000
 PZ  C   2   0.70711     0.00000     0.00000     0.00000    -0.00000    -0.00000
  
  S  H   3   0.00000    -0.33476    -0.36163     0.36753    -0.32434     0.17725
  
  S  H   4   0.00000    -0.33476    -0.36163    -0.36753     0.32434     0.17725
  
  S  H   5   0.00000     0.33476    -0.36163     0.36753     0.32434    -0.17725
  
  S  H   6  -0.00000     0.33476    -0.36163    -0.36753    -0.32434    -0.17725


 Reference determinate nber   1 is ALPHA 1 -   6
 SINGLE excitations FROM orbs   5 to   6 INTO orbs   7 to   8
 DOUBLE excitations FROM orbs   6 to   6 INTO orbs   7 to   7


 CI excitations=   10:        = 10
 The lowest   10 spin-adapted configurations of multiplicity=  1
     sym   eV   cm**-1 -dets- dipole oscilator X FRAG ....Excitations named from first reference determinate
                       tot  #  Debye  strength

   1     -0.000      0.  1  1  0.0000 0.000000 0  0 (        )->(           )
   2      7.706  62149.  2  1  0.0000 0.000000 1  1 (   6    )->(   8       )
   3      8.211  66230.  2  1  0.0000 0.000000 1  1 (   5    )->(   7       )
   4      8.301  66952.  2  1  0.0000 0.652022 1  1 (   6    )->(   7       )
   5     10.738  86611.  1  1  0.0000 0.000000 2  0 (   6   6)->(   7   7   )
   6     12.222  98581.  2  1  0.0000 0.131938 1  1 (   5    )->(   8       )
   7     13.075 105455.  2  1  0.0000 0.000000 2  1 (   6   6)->(   7   8   )
   8     13.581 109535.  2  1  0.0000 0.000000 2  1 (   5   6)->(   7   7   )
   9     14.566 117485.  6  1  0.0000 0.000000 2  1 (   5   6)->(   7   8   )
  10     20.523 165532.  6  2  0.0000 0.000000 2  1 (   5   6)->(   7   8   )
 
 COSMO corrections to state energies
 State    Diag E (eV)   Uncorr E (eV)   Final E (eV)
     1       -0.74827       -0.74827       -0.74827
     2        7.70550        7.70550        7.70550
     3        8.21143        8.21143        8.21143
     4        8.30093        8.30093        8.30093
     5       11.48666       11.48666       11.48666
     6       12.22241       12.22241       12.22241
     7       13.07470       13.07470       13.07470
     8       13.58062       13.58062       13.58062
     9       14.56628       14.56628       14.56628
    10       20.52334       20.52334       20.52334

 Depression of ground-state after CI=      -6035. cm**-1 Energy=  -378.5120366 eV
 Dipole moment=  0.000000  0.000000  0.000000 tot=  0.000000 Debyes


  CI trans.  energy frequency wavelength oscillator--------- polarization---------  dipole  ------ components-----
 st.  symm.    eV      cm - 1       nm      strength       x          y         z       moment     x       y       z 

   2      8.4537713    68184.    146.66  0.000000                                   0.000000   0.000   0.000  -0.000
   3      8.9596932    72265.    138.38  0.000000                                   0.000000   0.000   0.000  -0.000
   4      9.0492002    72987.    137.01  0.370154  -1.000000   0.000000   0.000000  0.000000  -0.000   0.000   0.000
   5     12.2349255    98682.    101.34  0.000000                                   0.000000   0.000   0.000   0.000
   6     12.9706758   104616.     95.59  0.131452  -0.000000   1.000000  -0.000000  0.000000   0.000   0.000   0.000
   7     13.8229673   111490.     89.69  0.017877  -0.000000   0.000000   1.000000  0.000000   0.000   0.000  -0.000
   8     14.3288893   115571.     86.53  0.000000                                   0.000000   0.000   0.000   0.000
   9     15.3145492   123520.     80.96  0.000000                                   0.000000   0.000   0.000  -0.000
  10     21.2716093   171568.     58.29  0.000000                                   0.000000   0.000   0.000  -0.000

 Polarizability (au  ) xx=   10.04 xy=   -0.00 yy=    1.74 xz=   -0.00 yz=   -0.00 zz=    0.21
 Polarizability (A**3) xx=    1.49 xy=   -0.00 yy=    0.26 xz=   -0.00 yz=   -0.00 zz=    0.03


 Major CI contributions to CI states

State    1  0.0000     CI coeff  CI percent
    Config       1   0.96893846  0.93884174
    Config       5  -0.24730195  0.06115826
 Total coeff printed             1.00000000
  
State    2  8.4538     CI coeff  CI percent
    Config       2   1.00000000  1.00000000
 Total coeff printed             1.00000000
  
State    3  8.9597     CI coeff  CI percent
    Config       3  -1.00000000  1.00000000
 Total coeff printed             1.00000000
  
State    4  9.0492     CI coeff  CI percent
    Config       4   1.00000000  1.00000000
 Total coeff printed             1.00000000
  
State    5 12.2349     CI coeff  CI percent
    Config       1   0.24730195  0.06115826
    Config       5   0.96893846  0.93884174
 Total coeff printed             1.00000000
  
State    6 12.9707     CI coeff  CI percent
    Config       6  -1.00000000  1.00000000
 Total coeff printed             1.00000000
  
State    7 13.8230     CI coeff  CI percent
    Config       7  -1.00000000  1.00000000
 Total coeff printed             1.00000000
  
State    8 14.3289     CI coeff  CI percent
    Config       8   1.00000000  1.00000000
 Total coeff printed             1.00000000
  
State    9 15.3145     CI coeff  CI percent
    Config       9   1.00000000  1.00000000
 Total coeff printed             1.00000000
  
State   10 21.2716     CI coeff  CI percent
    Config      10   1.00000000  1.00000000
 Total coeff printed             1.00000000
  

 -------------------------------------------------------------------------------
 1SCF INDO CISD C.I.=4 C.I.D.=(2,1)
 comment1
 comment2


     1SCF WAS SPECIFIED, SO BFGS WAS NOT USED                 
     SCF FIELD WAS ACHIEVED                                   


                              INDO CALCULATION
                                                       MOPAC v22.0.6 MacOS
                                                       Wed Jul 12 16:26:00 2023


          COSMO AREA              =         71.45 SQUARE ANGSTROMS
          COSMO VOLUME            =         53.18 CUBIC ANGSTROMS

          IONIZATION POTENTIAL    =          9.985662 EV
          HOMO LUMO ENERGIES (EV) =         -9.986  1.352
          NO. OF FILLED LEVELS    =          6
          MOLECULAR WEIGHT        =         28.0536         POINT GROUP:  D2h 

          MOLECULAR DIMENSIONS (Angstroms)

            Atom       Atom       Distance
            H     5    H     4     3.08402
            H     6    H     3     2.96729
            C     1    C     2     0.00000


          SCF CALCULATIONS        =          1

          WALL-CLOCK TIME         =      0.086 SECONDS
          COMPUTATION TIME        =      0.196 SECONDS




   ATOM   CHEMICAL          X               Y               Z
  NUMBER   SYMBOL      (ANGSTROMS)     (ANGSTROMS)     (ANGSTROMS)

     1       C         -0.67000000  *   0.00000000  *   0.00000000  *
     2       C          0.67000000  *   0.00000000  *   0.00000000  *
     3       H         -1.23000000  *  -0.93000000  *   0.00000000  *
     4       H         -1.23000000  *   0.93000000  *   0.00000000  *
     5       H          1.23000000  *  -0.93000000  *   0.00000000  *
     6       H          1.23000000  *   0.93000000  *   0.00000000  *

                             CARTESIAN COORDINATES

   1    C       -0.670000000     0.000000000     0.000000000
   2    C        0.670000000     0.000000000     0.000000000
   3    H       -1.230000000    -0.930000000     0.000000000
   4    H       -1.230000000     0.930000000     0.000000000
   5    H        1.230000000    -0.930000000     0.000000000
   6    H        1.230000000     0.930000000     0.000000000


           Empirical Formula: C2 H4  =     6 atoms



      MOLECULAR POINT GROUP   :   D2h 


                  EIGENVALUES  
 -35.21189 -24.10511 -19.53313 -16.07585 -13.53540  -9.98566   1.35164   3.79059
   5.06352   7.33858   7.93711  10.85409


              NET ATOMIC CHARGES AND DIPOLE CONTRIBUTIONS

  ATOM NO.   TYPE          CHARGE      No. of ELECS.   s-Pop       p-Pop       
    1          C          -0.058134        4.0581     1.10971     2.94843
    2          C          -0.058134        4.0581     1.10971     2.94843
    3          H           0.029067        0.9709     0.97093
    4          H           0.029067        0.9709     0.97093
    5          H           0.029067        0.9709     0.97093
    6          H           0.029067        0.9709     0.97093
 DIPOLE           X         Y         Z       TOTAL
 POINT-CHG.     0.000     0.000     0.000     0.000
 HYBRID        -0.000    -0.000     0.000     0.000
 SUM            0.000     0.000     0.000     0.000


          ATOMIC ORBITAL ELECTRON POPULATIONS

     Atom    s        px        py        pz   
    1  C   1.10971   0.98732   0.96110   1.00000
    2  C   1.10971   0.98732   0.96110   1.00000
    3  H   0.97093
    4  H   0.97093
    5  H   0.97093
    6  H   0.97093

 **********************
 *                    *
 * JOB ENDED NORMALLY *
 *                    *
 **********************



 TOTAL JOB TIME:             0.16 SECONDS

 == MOPAC DONE ==
