 *******************************************************************************
 ** Cite this program as: MOPAC2016, Version: 21.298M, James J. P. Stewart,   **
 **                           web-site: HTTP://OpenMOPAC.net.                 **
 *******************************************************************************
 **                                                                           **
 **                                MOPAC2016                                  **
 **                                                                           **
 *******************************************************************************

                              PM7 CALCULATION RESULTS

 *******************************************************************************
 *  CALCULATION DONE:                                Fri Oct 29 13:45:15 2021  *
 *  C.I.=6     - 6 M.O.S TO BE USED IN C.I.
 *  1SCF       - DO 1 SCF AND THEN STOP 
 *  T=         - A TIME OF 172800.0 SECONDS REQUESTED
 *  DUMP=N     - RESTART FILE WRITTEN EVERY 7200.0 SECONDS REQUESTED
 *  MECI       - M.E.C.I. WORKING TO BE PRINTED
 *******************************************************************************
1SCF C.I.=6 MECI
 comment1
 comment2
   ATOM   CHEMICAL          X               Y               Z
  NUMBER   SYMBOL      (ANGSTROMS)     (ANGSTROMS)     (ANGSTROMS)
 
     1       C         -0.67000000  *   0.00000000  *   0.00000000  *
     2       C          0.67000000  *   0.00000000  *   0.00000000  *
     3       H         -1.23000000  *  -0.93000000  *   0.00000000  *
     4       H         -1.23000000  *   0.93000000  *   0.00000000  *
     5       H          1.23000000  *  -0.93000000  *   0.00000000  *
     6       H          1.23000000  *   0.93000000  *   0.00000000  *
 


          CARTESIAN COORDINATES 

    NO.       ATOM           X           Y           Z

     1         C         -0.6700      0.0000      0.0000
     2         C          0.6700      0.0000      0.0000
     3         H         -1.2300     -0.9300      0.0000
     4         H         -1.2300      0.9300      0.0000
     5         H          1.2300     -0.9300      0.0000
     6         H          1.2300      0.9300      0.0000

 General Reference for PM7:
 "Optimization of Parameters for Semiempirical Methods VI: More Modifications to the 
 NDDO Approximations and Re-optimization of Parameters", J. J. P. Stewart, J. Mol. Mod., 1:32, 19 (2013)
 https://link.springer.com/article/10.1007/s00894-012-1667-x

           Empirical Formula: C2 H4  =     6 atoms



      MOLECULAR POINT GROUP   :   D2h 


      RHF CALCULATION, NO. OF DOUBLY OCCUPIED LEVELS = 6


 -------------------------------------------------------------------------------
 1SCF C.I.=6 MECI
 comment1
 comment2


     1SCF WAS SPECIFIED, SO BFGS WAS NOT USED                 
     SCF FIELD WAS ACHIEVED                                   


                              PM7 CALCULATION
                                                       MOPAC2016 (Version: 21.298M)
                                                       Fri Oct 29 13:45:18 2021




          FINAL HEAT OF FORMATION =          6.52314 KCAL/MOL =      27.29281 KJ/MOL


          COSMO AREA              =         71.45 SQUARE ANGSTROMS
          COSMO VOLUME            =         53.18 CUBIC ANGSTROMS

          IONIZATION POTENTIAL    =         10.684421 EV          STATE:   1 SINGLET Ag
          HOMO LUMO ENERGIES (EV) =        -10.684  0.976
          NO. OF FILLED LEVELS    =          6
          MOLECULAR WEIGHT        =         28.0536         POINT GROUP:  D2h 

          MOLECULAR DIMENSIONS (Angstroms)

            Atom       Atom       Distance
            H     5    H     4     3.08402
            H     6    H     3     2.96729
            C     1    C     2     0.00000


          SCF CALCULATIONS        =          1
 
          WALL-CLOCK TIME         =          3.059 SECONDS
          COMPUTATION TIME        =          3.596 SECONDS




   ATOM   CHEMICAL          X               Y               Z
  NUMBER   SYMBOL      (ANGSTROMS)     (ANGSTROMS)     (ANGSTROMS)
 
     1       C         -0.67000000  *   0.00000000  *   0.00000000  *
     2       C          0.67000000  *   0.00000000  *   0.00000000  *
     3       H         -1.23000000  *  -0.93000000  *   0.00000000  *
     4       H         -1.23000000  *   0.93000000  *   0.00000000  *
     5       H          1.23000000  *  -0.93000000  *   0.00000000  *
     6       H          1.23000000  *   0.93000000  *   0.00000000  *

                             CARTESIAN COORDINATES

   1    C       -0.670000000     0.000000000     0.000000000
   2    C        0.670000000     0.000000000     0.000000000
   3    H       -1.230000000    -0.930000000     0.000000000
   4    H       -1.230000000     0.930000000     0.000000000
   5    H        1.230000000    -0.930000000     0.000000000
   6    H        1.230000000     0.930000000     0.000000000


           Empirical Formula: C2 H4  =     6 atoms



      MOLECULAR POINT GROUP   :   D2h 


                  EIGENVALUES  
 -26.77535 -20.00189 -16.32165 -14.22366 -12.19463 -10.68442   0.97572   5.48787
   5.57216   6.33974   6.41349   6.48301


              NET ATOMIC CHARGES AND DIPOLE CONTRIBUTIONS

  ATOM NO.   TYPE          CHARGE      No. of ELECS.   s-Pop       p-Pop       
    1          C          -0.283404        4.2834     1.10307     3.18034
    2          C          -0.283404        4.2834     1.10307     3.18034
    3          H           0.141702        0.8583     0.85830
    4          H           0.141702        0.8583     0.85830
    5          H           0.141702        0.8583     0.85830
    6          H           0.141702        0.8583     0.85830
 DIPOLE           X         Y         Z       TOTAL
 POINT-CHG.     0.000     0.000     0.000     0.000
 HYBRID        -0.000    -0.000    -0.000     0.000
 SUM            0.000     0.000    -0.000     0.000


          ATOMIC ORBITAL ELECTRON POPULATIONS

     Atom    s        px        py        pz   
    1  C   1.10307   1.04651   1.13375   1.00008
    2  C   1.10307   1.04651   1.13375   1.00008
    3  H   0.85830
    4  H   0.85830
    5  H   0.85830
    6  H   0.85830


          MULTI-ELECTRON CONFIGURATION INTERACTION CALCULATION


          COMPONENT OF SPIN  =  0.0


           NO OF CONFIGURATIONS CONSIDERED = 400

 CONFIGURATIONS CONSIDERED IN C.I.      
 M.O. NUMBER :         4   5   6   7   8   9
          ENERGY

              1        1   1   1   0   0   0
          0.0000       1   1   1   0   0   0

              2        1   1   1   0   0   0
          4.1841       1   1   0   1   0   0

              3        1   1   1   0   0   0
          8.5463       1   1   0   0   1   0

              4        1   1   1   0   0   0
          7.9440       1   1   0   0   0   1

              5        1   1   1   0   0   0
          5.4405       1   0   1   1   0   0

              6        1   1   1   0   0   0
         10.0224       1   0   1   0   1   0

              7        1   1   1   0   0   0
         10.0667       1   0   1   0   0   1

              8        1   1   1   0   0   0
         14.2394       1   0   0   1   1   0

              9        1   1   1   0   0   0
         14.1158       1   0   0   1   0   1

             10        1   1   1   0   0   0
         17.9733       1   0   0   0   1   1

             11        1   1   1   0   0   0
          6.9964       0   1   1   1   0   0

             12        1   1   1   0   0   0
         12.1190       0   1   1   0   1   0

             13        1   1   1   0   0   0
         11.1961       0   1   1   0   0   1

             14        1   1   1   0   0   0
         16.1961       0   1   0   1   1   0

             15        1   1   1   0   0   0
         15.1053       0   1   0   1   0   1

             16        1   1   1   0   0   0
         19.5036       0   1   0   0   1   1

             17        1   1   1   0   0   0
         17.0096       0   0   1   1   1   0

             18        1   1   1   0   0   0
         16.5653       0   0   1   1   0   1

             19        1   1   1   0   0   0
         21.1833       0   0   1   0   1   1

             20        1   1   1   0   0   0
         25.1253       0   0   0   1   1   1

             21        1   1   0   1   0   0
          4.1841       1   1   1   0   0   0

             22        1   1   0   1   0   0
          8.3682       1   1   0   1   0   0

             23        1   1   0   1   0   0
         12.7304       1   1   0   0   1   0

             24        1   1   0   1   0   0
         12.1281       1   1   0   0   0   1

             25        1   1   0   1   0   0
          9.6247       1   0   1   1   0   0

             26        1   1   0   1   0   0
         14.2065       1   0   1   0   1   0

             27        1   1   0   1   0   0
         14.2509       1   0   1   0   0   1

             28        1   1   0   1   0   0
         18.4235       1   0   0   1   1   0

             29        1   1   0   1   0   0
         18.2999       1   0   0   1   0   1

             30        1   1   0   1   0   0
         22.1574       1   0   0   0   1   1

             31        1   1   0   1   0   0
         11.1805       0   1   1   1   0   0

             32        1   1   0   1   0   0
         16.3032       0   1   1   0   1   0

             33        1   1   0   1   0   0
         15.3802       0   1   1   0   0   1

             34        1   1   0   1   0   0
         20.3802       0   1   0   1   1   0

             35        1   1   0   1   0   0
         19.2894       0   1   0   1   0   1

             36        1   1   0   1   0   0
         23.6877       0   1   0   0   1   1

             37        1   1   0   1   0   0
         21.1937       0   0   1   1   1   0

             38        1   1   0   1   0   0
         20.7494       0   0   1   1   0   1

             39        1   1   0   1   0   0
         25.3674       0   0   1   0   1   1

             40        1   1   0   1   0   0
         29.3094       0   0   0   1   1   1

             41        1   1   0   0   1   0
          8.5463       1   1   1   0   0   0

             42        1   1   0   0   1   0
         12.7304       1   1   0   1   0   0

             43        1   1   0   0   1   0
         18.4765       1   1   0   0   1   0

             44        1   1   0   0   1   0
         17.2663       1   1   0   0   0   1

             45        1   1   0   0   1   0
         12.6805       1   0   1   1   0   0

             46        1   1   0   0   1   0
         18.6463       1   0   1   0   1   0

             47        1   1   0   0   1   0
         18.0827       1   0   1   0   0   1

             48        1   1   0   0   1   0
         22.8633       1   0   0   1   1   0

             49        1   1   0   0   1   0
         22.1318       1   0   0   1   0   1

             50        1   1   0   0   1   0
         27.3732       1   0   0   0   1   1

             51        1   1   0   0   1   0
         14.7184       0   1   1   1   0   0

             52        1   1   0   0   1   0
         21.2251       0   1   1   0   1   0

             53        1   1   0   0   1   0
         19.6942       0   1   1   0   0   1

             54        1   1   0   0   1   0
         25.3022       0   1   0   1   1   0

             55        1   1   0   0   1   0
         23.6033       0   1   0   1   0   1

             56        1   1   0   0   1   0
         29.3856       0   1   0   0   1   1

             57        1   1   0   0   1   0
         24.8093       0   0   1   1   1   0

             58        1   1   0   0   1   0
         23.7571       0   0   1   1   0   1

             59        1   1   0   0   1   0
         29.7590       0   0   1   0   1   1

             60        1   1   0   0   1   0
         33.7010       0   0   0   1   1   1

             61        1   1   0   0   0   1
          7.9440       1   1   1   0   0   0

             62        1   1   0   0   0   1
         12.1281       1   1   0   1   0   0

             63        1   1   0   0   0   1
         17.2663       1   1   0   0   1   0

             64        1   1   0   0   0   1
         16.8241       1   1   0   0   0   1

             65        1   1   0   0   0   1
         12.6317       1   0   1   1   0   0

             66        1   1   0   0   0   1
         17.9895       1   0   1   0   1   0

             67        1   1   0   0   0   1
         18.1940       1   0   1   0   0   1

             68        1   1   0   0   0   1
         22.2065       1   0   0   1   1   0

             69        1   1   0   0   0   1
         22.2431       1   0   0   1   0   1

             70        1   1   0   0   0   1
         26.8765       1   0   0   0   1   1

             71        1   1   0   0   0   1
         13.9875       0   1   1   1   0   0

             72        1   1   0   0   0   1
         19.8862       0   1   1   0   1   0

             73        1   1   0   0   0   1
         19.1233       0   1   1   0   0   1

             74        1   1   0   0   0   1
         23.9632       0   1   0   1   1   0

             75        1   1   0   0   0   1
         23.0325       0   1   0   1   0   1

             76        1   1   0   0   0   1
         28.2068       0   1   0   0   1   1

             77        1   1   0   0   0   1
         24.0238       0   0   1   1   1   0

             78        1   1   0   0   0   1
         23.7397       0   0   1   1   0   1

             79        1   1   0   0   0   1
         29.1337       0   0   1   0   1   1

             80        1   1   0   0   0   1
         33.0757       0   0   0   1   1   1

             81        1   0   1   1   0   0
          5.4405       1   1   1   0   0   0

             82        1   0   1   1   0   0
          9.6247       1   1   0   1   0   0

             83        1   0   1   1   0   0
         12.6805       1   1   0   0   1   0

             84        1   0   1   1   0   0
         12.6317       1   1   0   0   0   1

             85        1   0   1   1   0   0
         12.1319       1   0   1   1   0   0

             86        1   0   1   1   0   0
         15.4074       1   0   1   0   1   0

             87        1   0   1   1   0   0
         16.0052       1   0   1   0   0   1

             88        1   0   1   1   0   0
         19.6244       1   0   0   1   1   0

             89        1   0   1   1   0   0
         20.0543       1   0   0   1   0   1

             90        1   0   1   1   0   0
         22.6054       1   0   0   0   1   1

             91        1   0   1   1   0   0
         13.2254       0   1   1   1   0   0

             92        1   0   1   1   0   0
         17.0418       0   1   1   0   1   0

             93        1   0   1   1   0   0
         16.6723       0   1   1   0   0   1

             94        1   0   1   1   0   0
         21.1189       0   1   0   1   1   0

             95        1   0   1   1   0   0
         20.5815       0   1   0   1   0   1

             96        1   0   1   1   0   0
         23.6734       0   1   0   0   1   1

             97        1   0   1   1   0   0
         23.1831       0   0   1   1   1   0

             98        1   0   1   1   0   0
         23.2923       0   0   1   1   0   1

             99        1   0   1   1   0   0
         26.6040       0   0   1   0   1   1

            100        1   0   1   1   0   0
         30.5460       0   0   0   1   1   1

            101        1   0   1   0   1   0
         10.0224       1   1   1   0   0   0

            102        1   0   1   0   1   0
         14.2065       1   1   0   1   0   0

            103        1   0   1   0   1   0
         18.6463       1   1   0   0   1   0

            104        1   0   1   0   1   0
         17.9895       1   1   0   0   0   1

            105        1   0   1   0   1   0
         15.4074       1   0   1   1   0   0

            106        1   0   1   0   1   0
         20.0669       1   0   1   0   1   0

            107        1   0   1   0   1   0
         20.0567       1   0   1   0   0   1

            108        1   0   1   0   1   0
         24.2839       1   0   0   1   1   0

            109        1   0   1   0   1   0
         24.1058       1   0   0   1   0   1

            110        1   0   1   0   1   0
         28.0409       1   0   0   0   1   1

            111        1   0   1   0   1   0
         16.9830       0   1   1   1   0   0

            112        1   0   1   0   1   0
         22.1834       0   1   1   0   1   0

            113        1   0   1   0   1   0
         21.2059       0   1   1   0   0   1

            114        1   0   1   0   1   0
         26.2605       0   1   0   1   1   0

            115        1   0   1   0   1   0
         25.1151       0   1   0   1   0   1

            116        1   0   1   0   1   0
         29.5910       0   1   0   0   1   1

            117        1   0   1   0   1   0
         27.0184       0   0   1   1   1   0

            118        1   0   1   0   1   0
         26.5196       0   0   1   1   0   1

            119        1   0   1   0   1   0
         31.2152       0   0   1   0   1   1

            120        1   0   1   0   1   0
         35.1573       0   0   0   1   1   1

            121        1   0   1   0   0   1
         10.0667       1   1   1   0   0   0

            122        1   0   1   0   0   1
         14.2509       1   1   0   1   0   0

            123        1   0   1   0   0   1
         18.0827       1   1   0   0   1   0

            124        1   0   1   0   0   1
         18.1940       1   1   0   0   0   1

            125        1   0   1   0   0   1
         16.0052       1   0   1   1   0   0

            126        1   0   1   0   0   1
         20.0567       1   0   1   0   1   0

            127        1   0   1   0   0   1
         20.8147       1   0   1   0   0   1

            128        1   0   1   0   0   1
         24.2737       1   0   0   1   1   0

            129        1   0   1   0   0   1
         24.8638       1   0   0   1   0   1

            130        1   0   1   0   0   1
         28.1909       1   0   0   0   1   1

            131        1   0   1   0   0   1
         16.8987       0   1   1   1   0   0

            132        1   0   1   0   0   1
         21.4911       0   1   1   0   1   0

            133        1   0   1   0   0   1
         21.2817       0   1   1   0   0   1

            134        1   0   1   0   0   1
         25.5681       0   1   0   1   1   0

            135        1   0   1   0   0   1
         25.1909       0   1   0   1   0   1

            136        1   0   1   0   0   1
         29.0589       0   1   0   0   1   1

            137        1   0   1   0   0   1
         26.8795       0   0   1   1   1   0

            138        1   0   1   0   0   1
         27.1489       0   0   1   1   0   1

            139        1   0   1   0   0   1
         31.2365       0   0   1   0   1   1

            140        1   0   1   0   0   1
         35.1786       0   0   0   1   1   1

            141        1   0   0   1   1   0
         14.2394       1   1   1   0   0   0

            142        1   0   0   1   1   0
         18.4235       1   1   0   1   0   0

            143        1   0   0   1   1   0
         22.8633       1   1   0   0   1   0

            144        1   0   0   1   1   0
         22.2065       1   1   0   0   0   1

            145        1   0   0   1   1   0
         19.6244       1   0   1   1   0   0

            146        1   0   0   1   1   0
         24.2839       1   0   1   0   1   0

            147        1   0   0   1   1   0
         24.2737       1   0   1   0   0   1

            148        1   0   0   1   1   0
         28.5009       1   0   0   1   1   0

            149        1   0   0   1   1   0
         28.3228       1   0   0   1   0   1

            150        1   0   0   1   1   0
         32.2579       1   0   0   0   1   1

            151        1   0   0   1   1   0
         21.2000       0   1   1   1   0   0

            152        1   0   0   1   1   0
         26.4004       0   1   1   0   1   0

            153        1   0   0   1   1   0
         25.4229       0   1   1   0   0   1

            154        1   0   0   1   1   0
         30.4774       0   1   0   1   1   0

            155        1   0   0   1   1   0
         29.3320       0   1   0   1   0   1

            156        1   0   0   1   1   0
         33.8080       0   1   0   0   1   1

            157        1   0   0   1   1   0
         31.2354       0   0   1   1   1   0

            158        1   0   0   1   1   0
         30.7366       0   0   1   1   0   1

            159        1   0   0   1   1   0
         35.4322       0   0   1   0   1   1

            160        1   0   0   1   1   0
         39.3743       0   0   0   1   1   1

            161        1   0   0   1   0   1
         14.1158       1   1   1   0   0   0

            162        1   0   0   1   0   1
         18.2999       1   1   0   1   0   0

            163        1   0   0   1   0   1
         22.1318       1   1   0   0   1   0

            164        1   0   0   1   0   1
         22.2431       1   1   0   0   0   1

            165        1   0   0   1   0   1
         20.0543       1   0   1   1   0   0

            166        1   0   0   1   0   1
         24.1058       1   0   1   0   1   0

            167        1   0   0   1   0   1
         24.8638       1   0   1   0   0   1

            168        1   0   0   1   0   1
         28.3228       1   0   0   1   1   0

            169        1   0   0   1   0   1
         28.9129       1   0   0   1   0   1

            170        1   0   0   1   0   1
         32.2400       1   0   0   0   1   1

            171        1   0   0   1   0   1
         20.9478       0   1   1   1   0   0

            172        1   0   0   1   0   1
         25.5401       0   1   1   0   1   0

            173        1   0   0   1   0   1
         25.3308       0   1   1   0   0   1

            174        1   0   0   1   0   1
         29.6172       0   1   0   1   1   0

            175        1   0   0   1   0   1
         29.2399       0   1   0   1   0   1

            176        1   0   0   1   0   1
         33.1079       0   1   0   0   1   1

            177        1   0   0   1   0   1
         30.9286       0   0   1   1   1   0

            178        1   0   0   1   0   1
         31.1980       0   0   1   1   0   1

            179        1   0   0   1   0   1
         35.2856       0   0   1   0   1   1

            180        1   0   0   1   0   1
         39.2276       0   0   0   1   1   1

            181        1   0   0   0   1   1
         17.9733       1   1   1   0   0   0

            182        1   0   0   0   1   1
         22.1574       1   1   0   1   0   0

            183        1   0   0   0   1   1
         27.3732       1   1   0   0   1   0

            184        1   0   0   0   1   1
         26.8765       1   1   0   0   0   1

            185        1   0   0   0   1   1
         22.6054       1   0   1   1   0   0

            186        1   0   0   0   1   1
         28.0409       1   0   1   0   1   0

            187        1   0   0   0   1   1
         28.1909       1   0   1   0   0   1

            188        1   0   0   0   1   1
         32.2579       1   0   0   1   1   0

            189        1   0   0   0   1   1
         32.2400       1   0   0   1   0   1

            190        1   0   0   0   1   1
         36.9511       1   0   0   0   1   1

            191        1   0   0   0   1   1
         23.9810       0   1   1   1   0   0

            192        1   0   0   0   1   1
         29.9574       0   1   1   0   1   0

            193        1   0   0   0   1   1
         29.1400       0   1   1   0   0   1

            194        1   0   0   0   1   1
         34.0344       0   1   0   1   1   0

            195        1   0   0   0   1   1
         33.0492       0   1   0   1   0   1

            196        1   0   0   0   1   1
         38.3011       0   1   0   0   1   1

            197        1   0   0   0   1   1
         34.0395       0   0   1   1   1   0

            198        1   0   0   0   1   1
         33.7009       0   0   1   1   0   1

            199        1   0   0   0   1   1
         39.1725       0   0   1   0   1   1

            200        1   0   0   0   1   1
         43.1145       0   0   0   1   1   1

            201        0   1   1   1   0   0
          6.9964       1   1   1   0   0   0

            202        0   1   1   1   0   0
         11.1805       1   1   0   1   0   0

            203        0   1   1   1   0   0
         14.7184       1   1   0   0   1   0

            204        0   1   1   1   0   0
         13.9875       1   1   0   0   0   1

            205        0   1   1   1   0   0
         13.2254       1   0   1   1   0   0

            206        0   1   1   1   0   0
         16.9830       1   0   1   0   1   0

            207        0   1   1   1   0   0
         16.8987       1   0   1   0   0   1

            208        0   1   1   1   0   0
         21.2000       1   0   0   1   1   0

            209        0   1   1   1   0   0
         20.9478       1   0   0   1   0   1

            210        0   1   1   1   0   0
         23.9810       1   0   0   0   1   1

            211        0   1   1   1   0   0
         14.9752       0   1   1   1   0   0

            212        0   1   1   1   0   0
         19.2737       0   1   1   0   1   0

            213        0   1   1   1   0   0
         18.2220       0   1   1   0   0   1

            214        0   1   1   1   0   0
         23.3507       0   1   0   1   1   0

            215        0   1   1   1   0   0
         22.1312       0   1   0   1   0   1

            216        0   1   1   1   0   0
         25.7053       0   1   0   0   1   1

            217        0   1   1   1   0   0
         24.9527       0   0   1   1   1   0

            218        0   1   1   1   0   0
         24.3797       0   0   1   1   0   1

            219        0   1   1   1   0   0
         28.1735       0   0   1   0   1   1

            220        0   1   1   1   0   0
         32.1155       0   0   0   1   1   1

            221        0   1   1   0   1   0
         12.1190       1   1   1   0   0   0

            222        0   1   1   0   1   0
         16.3032       1   1   0   1   0   0

            223        0   1   1   0   1   0
         21.2251       1   1   0   0   1   0

            224        0   1   1   0   1   0
         19.8862       1   1   0   0   0   1

            225        0   1   1   0   1   0
         17.0418       1   0   1   1   0   0

            226        0   1   1   0   1   0
         22.1834       1   0   1   0   1   0

            227        0   1   1   0   1   0
         21.4911       1   0   1   0   0   1

            228        0   1   1   0   1   0
         26.4004       1   0   0   1   1   0

            229        0   1   1   0   1   0
         25.5401       1   0   0   1   0   1

            230        0   1   1   0   1   0
         29.9574       1   0   0   0   1   1

            231        0   1   1   0   1   0
         19.2737       0   1   1   1   0   0

            232        0   1   1   0   1   0
         24.9561       0   1   1   0   1   0

            233        0   1   1   0   1   0
         23.2965       0   1   1   0   0   1

            234        0   1   1   0   1   0
         29.0332       0   1   0   1   1   0

            235        0   1   1   0   1   0
         27.2056       0   1   0   1   0   1

            236        0   1   1   0   1   0
         32.1637       0   1   0   0   1   1

            237        0   1   1   0   1   0
         29.3288       0   0   1   1   1   0

            238        0   1   1   0   1   0
         28.1479       0   0   1   1   0   1

            239        0   1   1   0   1   0
         33.3256       0   0   1   0   1   1

            240        0   1   1   0   1   0
         37.2677       0   0   0   1   1   1

            241        0   1   1   0   0   1
         11.1961       1   1   1   0   0   0

            242        0   1   1   0   0   1
         15.3802       1   1   0   1   0   0

            243        0   1   1   0   0   1
         19.6942       1   1   0   0   1   0

            244        0   1   1   0   0   1
         19.1233       1   1   0   0   0   1

            245        0   1   1   0   0   1
         16.6723       1   0   1   1   0   0

            246        0   1   1   0   0   1
         21.2059       1   0   1   0   1   0

            247        0   1   1   0   0   1
         21.2817       1   0   1   0   0   1

            248        0   1   1   0   0   1
         25.4229       1   0   0   1   1   0

            249        0   1   1   0   0   1
         25.3308       1   0   0   1   0   1

            250        0   1   1   0   0   1
         29.1400       1   0   0   0   1   1

            251        0   1   1   0   0   1
         18.2220       0   1   1   1   0   0

            252        0   1   1   0   0   1
         23.2965       0   1   1   0   1   0

            253        0   1   1   0   0   1
         22.4050       0   1   1   0   0   1

            254        0   1   1   0   0   1
         27.3736       0   1   0   1   1   0

            255        0   1   1   0   0   1
         26.3142       0   1   0   1   0   1

            256        0   1   1   0   0   1
         30.6642       0   1   0   0   1   1

            257        0   1   1   0   0   1
         28.2226       0   0   1   1   1   0

            258        0   1   1   0   0   1
         27.8099       0   0   1   1   0   1

            259        0   1   1   0   0   1
         32.3796       0   0   1   0   1   1

            260        0   1   1   0   0   1
         36.3216       0   0   0   1   1   1

            261        0   1   0   1   1   0
         16.1961       1   1   1   0   0   0

            262        0   1   0   1   1   0
         20.3802       1   1   0   1   0   0

            263        0   1   0   1   1   0
         25.3022       1   1   0   0   1   0

            264        0   1   0   1   1   0
         23.9632       1   1   0   0   0   1

            265        0   1   0   1   1   0
         21.1189       1   0   1   1   0   0

            266        0   1   0   1   1   0
         26.2605       1   0   1   0   1   0

            267        0   1   0   1   1   0
         25.5681       1   0   1   0   0   1

            268        0   1   0   1   1   0
         30.4774       1   0   0   1   1   0

            269        0   1   0   1   1   0
         29.6172       1   0   0   1   0   1

            270        0   1   0   1   1   0
         34.0344       1   0   0   0   1   1

            271        0   1   0   1   1   0
         23.3507       0   1   1   1   0   0

            272        0   1   0   1   1   0
         29.0332       0   1   1   0   1   0

            273        0   1   0   1   1   0
         27.3736       0   1   1   0   0   1

            274        0   1   0   1   1   0
         33.1103       0   1   0   1   1   0

            275        0   1   0   1   1   0
         31.2827       0   1   0   1   0   1

            276        0   1   0   1   1   0
         36.2408       0   1   0   0   1   1

            277        0   1   0   1   1   0
         33.4059       0   0   1   1   1   0

            278        0   1   0   1   1   0
         32.2250       0   0   1   1   0   1

            279        0   1   0   1   1   0
         37.4027       0   0   1   0   1   1

            280        0   1   0   1   1   0
         41.3447       0   0   0   1   1   1

            281        0   1   0   1   0   1
         15.1053       1   1   1   0   0   0

            282        0   1   0   1   0   1
         19.2894       1   1   0   1   0   0

            283        0   1   0   1   0   1
         23.6033       1   1   0   0   1   0

            284        0   1   0   1   0   1
         23.0325       1   1   0   0   0   1

            285        0   1   0   1   0   1
         20.5815       1   0   1   1   0   0

            286        0   1   0   1   0   1
         25.1151       1   0   1   0   1   0

            287        0   1   0   1   0   1
         25.1909       1   0   1   0   0   1

            288        0   1   0   1   0   1
         29.3320       1   0   0   1   1   0

            289        0   1   0   1   0   1
         29.2399       1   0   0   1   0   1

            290        0   1   0   1   0   1
         33.0492       1   0   0   0   1   1

            291        0   1   0   1   0   1
         22.1312       0   1   1   1   0   0

            292        0   1   0   1   0   1
         27.2056       0   1   1   0   1   0

            293        0   1   0   1   0   1
         26.3142       0   1   1   0   0   1

            294        0   1   0   1   0   1
         31.2827       0   1   0   1   1   0

            295        0   1   0   1   0   1
         30.2233       0   1   0   1   0   1

            296        0   1   0   1   0   1
         34.5734       0   1   0   0   1   1

            297        0   1   0   1   0   1
         32.1318       0   0   1   1   1   0

            298        0   1   0   1   0   1
         31.7190       0   0   1   1   0   1

            299        0   1   0   1   0   1
         36.2888       0   0   1   0   1   1

            300        0   1   0   1   0   1
         40.2308       0   0   0   1   1   1

            301        0   1   0   0   1   1
         19.5036       1   1   1   0   0   0

            302        0   1   0   0   1   1
         23.6877       1   1   0   1   0   0

            303        0   1   0   0   1   1
         29.3856       1   1   0   0   1   0

            304        0   1   0   0   1   1
         28.2068       1   1   0   0   0   1

            305        0   1   0   0   1   1
         23.6734       1   0   1   1   0   0

            306        0   1   0   0   1   1
         29.5910       1   0   1   0   1   0

            307        0   1   0   0   1   1
         29.0589       1   0   1   0   0   1

            308        0   1   0   0   1   1
         33.8080       1   0   0   1   1   0

            309        0   1   0   0   1   1
         33.1079       1   0   0   1   0   1

            310        0   1   0   0   1   1
         38.3011       1   0   0   0   1   1

            311        0   1   0   0   1   1
         25.7053       0   1   1   1   0   0

            312        0   1   0   0   1   1
         32.1637       0   1   1   0   1   0

            313        0   1   0   0   1   1
         30.6642       0   1   1   0   0   1

            314        0   1   0   0   1   1
         36.2408       0   1   0   1   1   0

            315        0   1   0   0   1   1
         34.5734       0   1   0   1   0   1

            316        0   1   0   0   1   1
         40.3075       0   1   0   0   1   1

            317        0   1   0   0   1   1
         35.7836       0   0   1   1   1   0

            318        0   1   0   0   1   1
         34.7628       0   0   1   1   0   1

            319        0   1   0   0   1   1
         40.7165       0   0   1   0   1   1

            320        0   1   0   0   1   1
         44.6586       0   0   0   1   1   1

            321        0   0   1   1   1   0
         17.0096       1   1   1   0   0   0

            322        0   0   1   1   1   0
         21.1937       1   1   0   1   0   0

            323        0   0   1   1   1   0
         24.8093       1   1   0   0   1   0

            324        0   0   1   1   1   0
         24.0238       1   1   0   0   0   1

            325        0   0   1   1   1   0
         23.1831       1   0   1   1   0   0

            326        0   0   1   1   1   0
         27.0184       1   0   1   0   1   0

            327        0   0   1   1   1   0
         26.8795       1   0   1   0   0   1

            328        0   0   1   1   1   0
         31.2354       1   0   0   1   1   0

            329        0   0   1   1   1   0
         30.9286       1   0   0   1   0   1

            330        0   0   1   1   1   0
         34.0395       1   0   0   0   1   1

            331        0   0   1   1   1   0
         24.9527       0   1   1   1   0   0

            332        0   0   1   1   1   0
         29.3288       0   1   1   0   1   0

            333        0   0   1   1   1   0
         28.2226       0   1   1   0   0   1

            334        0   0   1   1   1   0
         33.4059       0   1   0   1   1   0

            335        0   0   1   1   1   0
         32.1318       0   1   0   1   0   1

            336        0   0   1   1   1   0
         35.7836       0   1   0   0   1   1

            337        0   0   1   1   1   0
         34.9523       0   0   1   1   1   0

            338        0   0   1   1   1   0
         34.3248       0   0   1   1   0   1

            339        0   0   1   1   1   0
         38.1963       0   0   1   0   1   1

            340        0   0   1   1   1   0
         42.1383       0   0   0   1   1   1

            341        0   0   1   1   0   1
         16.5653       1   1   1   0   0   0

            342        0   0   1   1   0   1
         20.7494       1   1   0   1   0   0

            343        0   0   1   1   0   1
         23.7571       1   1   0   0   1   0

            344        0   0   1   1   0   1
         23.7397       1   1   0   0   0   1

            345        0   0   1   1   0   1
         23.2923       1   0   1   1   0   0

            346        0   0   1   1   0   1
         26.5196       1   0   1   0   1   0

            347        0   0   1   1   0   1
         27.1489       1   0   1   0   0   1

            348        0   0   1   1   0   1
         30.7366       1   0   0   1   1   0

            349        0   0   1   1   0   1
         31.1980       1   0   0   1   0   1

            350        0   0   1   1   0   1
         33.7009       1   0   0   0   1   1

            351        0   0   1   1   0   1
         24.3797       0   1   1   1   0   0

            352        0   0   1   1   0   1
         28.1479       0   1   1   0   1   0

            353        0   0   1   1   0   1
         27.8099       0   1   1   0   0   1

            354        0   0   1   1   0   1
         32.2250       0   1   0   1   1   0

            355        0   0   1   1   0   1
         31.7190       0   1   0   1   0   1

            356        0   0   1   1   0   1
         34.7628       0   1   0   0   1   1

            357        0   0   1   1   0   1
         34.3248       0   0   1   1   1   0

            358        0   0   1   1   0   1
         34.4655       0   0   1   1   0   1

            359        0   0   1   1   0   1
         37.7290       0   0   1   0   1   1

            360        0   0   1   1   0   1
         41.6710       0   0   0   1   1   1

            361        0   0   1   0   1   1
         21.1833       1   1   1   0   0   0

            362        0   0   1   0   1   1
         25.3674       1   1   0   1   0   0

            363        0   0   1   0   1   1
         29.7590       1   1   0   0   1   0

            364        0   0   1   0   1   1
         29.1337       1   1   0   0   0   1

            365        0   0   1   0   1   1
         26.6040       1   0   1   1   0   0

            366        0   0   1   0   1   1
         31.2152       1   0   1   0   1   0

            367        0   0   1   0   1   1
         31.2365       1   0   1   0   0   1

            368        0   0   1   0   1   1
         35.4322       1   0   0   1   1   0

            369        0   0   1   0   1   1
         35.2856       1   0   0   1   0   1

            370        0   0   1   0   1   1
         39.1725       1   0   0   0   1   1

            371        0   0   1   0   1   1
         28.1735       0   1   1   1   0   0

            372        0   0   1   0   1   1
         33.3256       0   1   1   0   1   0

            373        0   0   1   0   1   1
         32.3796       0   1   1   0   0   1

            374        0   0   1   0   1   1
         37.4027       0   1   0   1   1   0

            375        0   0   1   0   1   1
         36.2888       0   1   0   1   0   1

            376        0   0   1   0   1   1
         40.7165       0   1   0   0   1   1

            377        0   0   1   0   1   1
         38.1963       0   0   1   1   1   0

            378        0   0   1   0   1   1
         37.7290       0   0   1   1   0   1

            379        0   0   1   0   1   1
         42.3764       0   0   1   0   1   1

            380        0   0   1   0   1   1
         46.3184       0   0   0   1   1   1

            381        0   0   0   1   1   1
         25.1253       1   1   1   0   0   0

            382        0   0   0   1   1   1
         29.3094       1   1   0   1   0   0

            383        0   0   0   1   1   1
         33.7010       1   1   0   0   1   0

            384        0   0   0   1   1   1
         33.0757       1   1   0   0   0   1

            385        0   0   0   1   1   1
         30.5460       1   0   1   1   0   0

            386        0   0   0   1   1   1
         35.1573       1   0   1   0   1   0

            387        0   0   0   1   1   1
         35.1786       1   0   1   0   0   1

            388        0   0   0   1   1   1
         39.3743       1   0   0   1   1   0

            389        0   0   0   1   1   1
         39.2276       1   0   0   1   0   1

            390        0   0   0   1   1   1
         43.1145       1   0   0   0   1   1

            391        0   0   0   1   1   1
         32.1155       0   1   1   1   0   0

            392        0   0   0   1   1   1
         37.2677       0   1   1   0   1   0

            393        0   0   0   1   1   1
         36.3216       0   1   1   0   0   1

            394        0   0   0   1   1   1
         41.3447       0   1   0   1   1   0

            395        0   0   0   1   1   1
         40.2308       0   1   0   1   0   1

            396        0   0   0   1   1   1
         44.6586       0   1   0   0   1   1

            397        0   0   0   1   1   1
         42.1383       0   0   1   1   1   0

            398        0   0   0   1   1   1
         41.6710       0   0   1   1   0   1

            399        0   0   0   1   1   1
         46.3184       0   0   1   0   1   1

            400        0   0   0   1   1   1
         50.2604       0   0   0   1   1   1

  STATE       ENERGY (EV)        Q.N.  SPIN   SYMMETRY              POLARIZATION
         ABSOLUTE     RELATIVE                                X           Y           Z

    1+   -0.353013    0.000000     1+  SINGLET     Ag  
    2     2.627876    2.980889     1   TRIPLET     B1u 
    3     5.254107    5.607120     1   TRIPLET     B1g 
    4     5.452612    5.805625     1   SINGLET     B1u       1.0395      0.0000      0.0000
    5     5.525024    5.878037     1   SINGLET     B1g 
    6     6.723785    7.076798     1   TRIPLET     B2g 
    7     7.082118    7.435130     1   SINGLET     B2g 
    8     7.833530    8.186543     2   TRIPLET     B2g 
    9     8.009361    8.362373     2   SINGLET     B2g 
   10     8.393562    8.746575     2   SINGLET     Ag  
   11     8.400301    8.753313     2   TRIPLET     B1g 
   12     8.599524    8.952537     2   SINGLET     B1g 
   13     9.312112    9.665125     1   TRIPLET     B2u 
   14     9.350784    9.703796     2   TRIPLET     B1u 
   15     9.423885    9.776897     1   TRIPLET     Au  
   16     9.639700    9.992713     1   SINGLET     Au  
   17     9.796962   10.149974     2   SINGLET     B1u       0.3393      0.0000      0.0000
   18    10.089806   10.442818     1   SINGLET     B2u       0.0000      0.2057      0.0000
   19    10.797462   11.150475     1   TRIPLET     B3u 
   20    10.831397   11.184410     3   TRIPLET     B1u 
   21    11.195346   11.548359     1   SINGLET     B3u 
   22    11.343421   11.696433     3   SINGLET     B1u       0.2915      0.0000      0.0000
   23    11.544928   11.897940     2   TRIPLET     B2u 
   24    11.771663   12.124676     2   TRIPLET     B3u 
   25    11.888397   12.241410     1   QUINTET     B3g 
   26    12.046477   12.399490     1   QUINTET     Ag  
   27    12.055170   12.408182     3   SINGLET     Ag  
   28    12.193727   12.546740     2   SINGLET     B2u       0.0000      0.3649      0.0000
   29    12.398718   12.751731     2   SINGLET     B3u       0.0000      0.0000      0.0001
   30    12.489220   12.842232     1   TRIPLET     B3g 
   31    12.541932   12.894944     1   TRIPLET     Ag  
   32    12.562270   12.915283     2   TRIPLET     Au  
   33    12.689868   13.042881     2   TRIPLET     Ag  
   34    12.709030   13.062043     2   SINGLET     Au  
   35    12.785044   13.138057     2   TRIPLET     B3g 
   36    12.808111   13.161124     4   SINGLET     Ag  
   37    12.841303   13.194316     1   SINGLET     B3g 
   38    13.045229   13.398241     3   TRIPLET     B3g 
   39    13.304761   13.657774     2   QUINTET     Ag  
   40    13.574591   13.927604     2   SINGLET     B3g 
   41    14.077427   14.430440     3   TRIPLET     Ag  
   42    14.163081   14.516093     2   QUINTET     B3g 
   43    14.214275   14.567288     4   TRIPLET     Ag  
   44    14.367514   14.720527     5   SINGLET     Ag  
   45    14.705455   15.058467     4   TRIPLET     B3g 
   46    14.916678   15.269691     6   SINGLET     Ag  
   47    15.048924   15.401936     3   SINGLET     B3g 
   48    15.064386   15.417399     3   TRIPLET     Au  
   49    15.111209   15.464221     5   TRIPLET     B3g 
   50    15.184626   15.537639     6   TRIPLET     B3g 
   51    15.278312   15.631325     5   TRIPLET     Ag  
   52    15.332835   15.685847     3   SINGLET     Au  
   53    15.528741   15.881753     3   TRIPLET     B3u 
   54    15.669203   16.022216     7   SINGLET     Ag  
   55    15.689681   16.042693     1   QUINTET     Au  
   56    15.915254   16.268267     4   SINGLET     B3g 
   57    16.007082   16.360094     1   QUINTET     B3u 
   58    16.042457   16.395470     3   SINGLET     B3u 
   59    16.387013   16.740025     4   TRIPLET     Au  
   60    16.524127   16.877140     6   TRIPLET     Ag  
   61    16.546606   16.899618     8   SINGLET     Ag  
   62    16.568218   16.921230     4   TRIPLET     B3u 
   63    16.583844   16.936856     5   TRIPLET     Au  
   64    16.713339   17.066352     7   TRIPLET     B3g 
   65    16.797805   17.150818     4   SINGLET     Au  
   66    16.840733   17.193746     5   TRIPLET     B3u 
   67    17.119816   17.472829     2   QUINTET     B3u 
   68    17.126971   17.479984     6   TRIPLET     Au  
   69    17.153083   17.506095     4   SINGLET     B3u 
   70    17.168294   17.521307     6   TRIPLET     B3u 
   71    17.328665   17.681678     9   SINGLET     Ag  
   72    17.488366   17.841379     5   SINGLET     B3g 
   73    17.502983   17.855996     8   TRIPLET     B3g 
   74    17.534441   17.887453     5   SINGLET     Au  
   75    17.540982   17.893994     5   SINGLET     B3u 
   76    17.563394   17.916407     7   TRIPLET     B3u 
   77    17.844353   18.197366     8   TRIPLET     B3u 
   78    17.845498   18.198511     7   TRIPLET     Au  
   79    17.995749   18.348761     3   TRIPLET     B2u 
   80    18.138355   18.491368     6   SINGLET     Au  
   81    18.172410   18.525422     6   SINGLET     B3g 
   82    18.179081   18.532094     6   SINGLET     B3u 
   83    18.181779   18.534792     4   TRIPLET     B1u 
   84    18.198986   18.551999     9   TRIPLET     B3u 
   85    18.330903   18.683915     8   TRIPLET     Au  
   86    18.482023   18.835036     4   SINGLET     B1u       0.0016      0.0000      0.0000
   87    18.487503   18.840515     7   SINGLET     B3u 
   88    18.497407   18.850420    10   TRIPLET     B3u 
   89    18.543697   18.896710    10   SINGLET     Ag  
   90    18.632725   18.985738     7   SINGLET     Au  
   91    18.744480   19.097492     2   QUINTET     Au  
   92    18.770811   19.123824     3   SINGLET     B2u 
   93    18.789526   19.142539     8   SINGLET     B3u 
   94    19.151081   19.504093    11   TRIPLET     B3u 
   95    19.164833   19.517845     9   TRIPLET     Au  
   96    19.224953   19.577965     3   TRIPLET     B1g 
   97    19.363037   19.716050     9   TRIPLET     B3g 
   98    19.376494   19.729507     5   TRIPLET     B1u 
   99    19.404788   19.757800    10   TRIPLET     Au  
  100    19.448037   19.801050     3   SINGLET     B1g 
  101    19.463595   19.816607     8   SINGLET     Au  
  102    19.482446   19.835459    11   SINGLET     Ag  
  103    19.706403   20.059416     3   TRIPLET     B2g 
  104    19.717717   20.070730     3   QUINTET     Ag  
  105    19.751073   20.104085     9   SINGLET     B3u 
  106    19.758218   20.111230     1   QUINTET     B1g 
  107    19.769932   20.122945     7   SINGLET     B3g 
  108    19.919162   20.272175     5   SINGLET     B1u       0.0007      0.0000      0.0000
  109    19.960967   20.313979     3   SINGLET     B2g 
  110    20.036639   20.389652    11   TRIPLET     Au  
  111    20.066619   20.419631     9   SINGLET     Au  
  112    20.113994   20.467006    12   SINGLET     Ag  
  113    20.127395   20.480407     1   QUINTET     B2g 
  114    20.244019   20.597031     4   TRIPLET     B2u 
  115    20.250204   20.603217    12   TRIPLET     Au  
  116    20.377827   20.730839     4   TRIPLET     B1g 
  117    20.460504   20.813517    10   TRIPLET     B3g 
  118    20.609784   20.962797     5   TRIPLET     B1g 
  119    20.697014   21.050027     4   TRIPLET     B2g 
  120    20.777409   21.130421    10   SINGLET     Au  
  121    20.805056   21.158069     7   TRIPLET     Ag  
  122    20.848918   21.201930     4   SINGLET     B1g 
  123    20.893043   21.246055     4   SINGLET     B2u 
  124    20.903088   21.256100     5   TRIPLET     B2g 
  125    21.103442   21.456454     2   QUINTET     B2g 
  126    21.118111   21.471124     8   TRIPLET     Ag  
  127    21.156934   21.509946    12   TRIPLET     B3u 
  128    21.184044   21.537057     4   SINGLET     B2g 
  129    21.184193   21.537205     6   TRIPLET     B1g 
  130    21.244507   21.597519     9   TRIPLET     Ag  
  131    21.304185   21.657198     6   TRIPLET     B2g 
  132    21.379506   21.732518    13   SINGLET     Ag  
  133    21.527582   21.880595     8   SINGLET     B3g 
  134    21.560636   21.913649     5   SINGLET     B1g 
  135    21.560818   21.913831     5   SINGLET     B2g 
  136    21.667881   22.020894    10   SINGLET     B3u 
  137    21.694317   22.047330     7   TRIPLET     B2g 
  138    21.723815   22.076828    11   TRIPLET     B3g 
  139    21.840030   22.193042    14   SINGLET     Ag  
  140    21.863413   22.216426     7   TRIPLET     B1g 
  141    21.903157   22.256170     1   QUINTET     B2u 
  142    21.904963   22.257976     1   SEPTET      B1u 
  143    21.948836   22.301848     8   TRIPLET     B2g 
  144    21.981259   22.334271     9   SINGLET     B3g 
  145    22.191795   22.544807     6   SINGLET     B1g 
  146    22.274242   22.627255     6   SINGLET     B2g 
  147    22.294357   22.647370     6   TRIPLET     B1u 
  148    22.334324   22.687337     9   TRIPLET     B2g 
  149    22.403300   22.756312     5   TRIPLET     B2u 
  150    22.450504   22.803517     8   TRIPLET     B1g 
  151    22.458076   22.811089     7   SINGLET     B2g 
  152    22.462535   22.815548    10   TRIPLET     B2g 
  153    22.505708   22.858720     6   TRIPLET     B2u 
  154    22.724031   23.077043     7   SINGLET     B1g 
  155    22.757488   23.110500     7   TRIPLET     B2u 
  156    22.763245   23.116257     5   SINGLET     B2u 
  157    22.773579   23.126592     2   QUINTET     B1g 
  158    22.802440   23.155453    12   TRIPLET     B3g 
  159    22.839279   23.192291     1   QUINTET     B1u 
  160    22.854389   23.207402     7   TRIPLET     B1u 
  161    22.868128   23.221141     8   SINGLET     B2g 
  162    22.882477   23.235489     2   QUINTET     B2u 
  163    22.952117   23.305130    15   SINGLET     Ag  
  164    23.142592   23.495604     6   SINGLET     B1u 
  165    23.149441   23.502454     8   TRIPLET     B1u 
  166    23.203915   23.556927     9   TRIPLET     B1g 
  167    23.231675   23.584688    11   TRIPLET     B2g 
  168    23.398548   23.751561     2   QUINTET     B1u 
  169    23.464664   23.817676     6   SINGLET     B2u 
  170    23.466617   23.819630     9   TRIPLET     B1u 
  171    23.475719   23.828732    10   TRIPLET     B1g 
  172    23.477257   23.830269     8   SINGLET     B1g 
  173    23.481273   23.834286     9   SINGLET     B2g 
  174    23.484056   23.837069     3   QUINTET     B1u 
  175    23.548604   23.901616     8   TRIPLET     B2u 
  176    23.778860   24.131873     4   QUINTET     B1u 
  177    23.873490   24.226502    10   TRIPLET     B1u 
  178    23.887305   24.240317     7   SINGLET     B2u 
  179    23.888405   24.241417    11   TRIPLET     B1g 
  180    24.113126   24.466138     7   SINGLET     B1u 
  181    24.113270   24.466283     9   TRIPLET     B2u 
  182    24.114054   24.467067    11   TRIPLET     B1u 
  183    24.160404   24.513417    10   SINGLET     B3g 
  184    24.235103   24.588116     3   QUINTET     B2u 
  185    24.283124   24.636136    12   TRIPLET     B1u 
  186    24.308815   24.661828     9   SINGLET     B1g 
  187    24.310686   24.663699    13   TRIPLET     B1u 
  188    24.368517   24.721529    10   TRIPLET     B2u 
  189    24.393896   24.746909    12   TRIPLET     B1g 
  190    24.583099   24.936111    14   TRIPLET     B1u 
  191    24.608534   24.961546     8   SINGLET     B1u 
  192    24.676125   25.029138    10   SINGLET     B1g 
  193    24.722280   25.075293     9   SINGLET     B1u 
  194    24.732912   25.085925    11   TRIPLET     B2u 
  195    24.749565   25.102578    15   TRIPLET     B1u 
  196    24.815868   25.168881     8   SINGLET     B2u 
  197    24.933167   25.286180    12   TRIPLET     B2u 
  198    25.045177   25.398190    16   SINGLET     Ag  
  199    25.219810   25.572822    10   SINGLET     B1u 
  200    25.229678   25.582690     9   SINGLET     B2u 
  201    25.272052   25.625065     4   QUINTET     B2u 
  202    25.301037   25.654050    13   TRIPLET     B2u 
  203    25.314309   25.667321    12   TRIPLET     B2g 
  204    25.532283   25.885296     5   QUINTET     B1u 
  205    25.597734   25.950747    10   SINGLET     B2g 
  206    25.617836   25.970849    11   SINGLET     B1u       0.0001      0.0000      0.0000
  207    25.648109   26.001122    10   SINGLET     B2u 
  208    25.733318   26.086331     3   QUINTET     B1g 
  209    25.743262   26.096274    16   TRIPLET     B1u 
  210    25.863652   26.216664    14   TRIPLET     B2u 
  211    25.963707   26.316720    12   SINGLET     B1u 
  212    26.153380   26.506393    15   TRIPLET     B2u 
  213    26.182063   26.535076    11   SINGLET     B2u 
  214    26.249448   26.602460    17   TRIPLET     B1u 
  215    26.341073   26.694085    13   TRIPLET     B1g 
  216    26.492853   26.845866    14   TRIPLET     B1g 
  217    26.493027   26.846040    13   TRIPLET     B2g 
  218    26.614902   26.967915    11   SINGLET     B1g 
  219    26.678452   27.031464    16   TRIPLET     B2u 
  220    26.802693   27.155705    15   TRIPLET     B1g 
  221    26.806164   27.159177    13   SINGLET     B1u 
  222    26.817209   27.170222    18   TRIPLET     B1u 
  223    26.820587   27.173600    11   SINGLET     B2g 
  224    26.926574   27.279586    14   TRIPLET     B2g 
  225    26.973616   27.326628    17   TRIPLET     B2u 
  226    27.029161   27.382173    19   TRIPLET     B1u 
  227    27.076429   27.429442    14   SINGLET     B1u 
  228    27.108519   27.461532    20   TRIPLET     B1u 
  229    27.113039   27.466051     3   QUINTET     B2g 
  230    27.241573   27.594585    12   SINGLET     B1g 
  231    27.272081   27.625094    12   SINGLET     B2u 
  232    27.317404   27.670416    12   SINGLET     B2g 
  233    27.502007   27.855020    13   SINGLET     B2u 
  234    27.575881   27.928893    18   TRIPLET     B2u 
  235    27.685536   28.038549    15   TRIPLET     B2g 
  236    27.754378   28.107390    15   SINGLET     B1u 
  237    27.757808   28.110820    16   TRIPLET     B2g 
  238    27.803718   28.156731    16   TRIPLET     B1g 
  239    27.874151   28.227164    21   TRIPLET     B1u 
  240    27.971024   28.324036    13   SINGLET     B2g 
  241    27.994827   28.347839    14   SINGLET     B2u 
  242    28.079455   28.432467    17   TRIPLET     B1g 
  243    28.096726   28.449738    13   TRIPLET     B3g 
  244    28.117937   28.470950    19   TRIPLET     B2u 
  245    28.128885   28.481898     4   QUINTET     B2g 
  246    28.170174   28.523187    13   SINGLET     B1g 
  247    28.237310   28.590322    14   SINGLET     B1g 
  248    28.238800   28.591813    17   SINGLET     Ag  
  249    28.351562   28.704574     4   QUINTET     Ag  
  250    28.413524   28.766536    11   SINGLET     B3g 
  251    28.483899   28.836911    17   TRIPLET     B2g 
  252    28.602172   28.955184    15   SINGLET     B2u 
  253    28.602489   28.955502    20   TRIPLET     B2u 
  254    28.684954   29.037966    16   SINGLET     B1u 
  255    28.691582   29.044595    18   SINGLET     Ag  
  256    28.727418   29.080431    18   TRIPLET     B2g 
  257    28.732124   29.085136    14   SINGLET     B2g 
  258    28.823087   29.176099     4   QUINTET     B1g 
  259    28.880030   29.233043    19   TRIPLET     B2g 
  260    28.914624   29.267637    14   TRIPLET     B3g 
  261    29.022556   29.375569    15   SINGLET     B2g 
  262    29.231400   29.584413    22   TRIPLET     B1u 
  263    29.233531   29.586544    20   TRIPLET     B2g 
  264    29.234855   29.587868    18   TRIPLET     B1g 
  265    29.459393   29.812406    10   TRIPLET     Ag  
  266    29.460890   29.813902    19   TRIPLET     B1g 
  267    29.537093   29.890106    15   SINGLET     B1g 
  268    29.625358   29.978371    17   SINGLET     B1u 
  269    29.626400   29.979412    11   TRIPLET     Ag  
  270    29.702311   30.055323    21   TRIPLET     B2g 
  271    29.704204   30.057217    16   SINGLET     B2g 
  272    29.793809   30.146822    19   SINGLET     Ag  
  273    29.801236   30.154249     3   QUINTET     Au  
  274    29.814666   30.167679    20   TRIPLET     B1g 
  275    29.845417   30.198430    16   SINGLET     B1g 
  276    29.877081   30.230094    12   TRIPLET     Ag  
  277    29.921971   30.274983    17   SINGLET     B2g 
  278    29.966551   30.319563    16   SINGLET     B2u 
  279    30.096202   30.449215    12   SINGLET     B3g 
  280    30.097564   30.450577    21   TRIPLET     B1g 
  281    30.354332   30.707345    13   TRIPLET     Au  
  282    30.425381   30.778394    20   SINGLET     Ag  
  283    30.446589   30.799601    15   TRIPLET     B3g 
  284    30.472381   30.825394    14   TRIPLET     Au  
  285    30.501265   30.854278    13   TRIPLET     B3u 
  286    30.586549   30.939562    13   SINGLET     B3g 
  287    30.649135   31.002148    21   TRIPLET     B2u 
  288    30.672749   31.025761    17   SINGLET     B1g 
  289    30.674406   31.027418    11   SINGLET     Au  
  290    30.808193   31.161206    23   TRIPLET     B1u 
  291    30.847331   31.200344    18   SINGLET     B1u 
  292    30.881091   31.234104    15   TRIPLET     Au  
  293    30.919651   31.272663    14   TRIPLET     B3u 
  294    30.966044   31.319057    11   SINGLET     B3u 
  295    31.099040   31.452053    22   TRIPLET     B1g 
  296    31.128741   31.481753     3   QUINTET     B3u 
  297    31.137389   31.490401    12   SINGLET     Au  
  298    31.192710   31.545723    19   SINGLET     B1u 
  299    31.264946   31.617959    16   TRIPLET     B3g 
  300    31.282659   31.635672    18   SINGLET     B1g 
  301    31.318306   31.671319    12   SINGLET     B3u 
  302    31.387495   31.740508    17   SINGLET     B2u 
  303    31.449700   31.802713    21   SINGLET     Ag  
  304    31.639918   31.992930    15   TRIPLET     B3u 
  305    31.723319   32.076332    16   TRIPLET     B3u 
  306    31.795316   32.148329    16   TRIPLET     Au  
  307    31.997194   32.350207    13   SINGLET     Au  
  308    32.003399   32.356412    24   TRIPLET     B1u 
  309    32.054268   32.407281    17   TRIPLET     Au  
  310    32.204300   32.557312    22   TRIPLET     B2g 
  311    32.217122   32.570134     4   QUINTET     B3u 
  312    32.235001   32.588014    13   SINGLET     B3u 
  313    32.352440   32.705453    14   SINGLET     Au  
  314    32.440974   32.793986    17   TRIPLET     B3u 
  315    32.490898   32.843910    18   SINGLET     B2g 
  316    32.605667   32.958680    18   TRIPLET     B3u 
  317    32.697197   33.050210    14   SINGLET     B3g 
  318    32.731319   33.084332    14   SINGLET     B3u 
  319    32.790537   33.143550    19   TRIPLET     B3u 
  320    32.797921   33.150934    20   SINGLET     B1u 
  321    32.815577   33.168589    22   TRIPLET     B2u 
  322    32.852805   33.205817     4   QUINTET     Au  
  323    33.026580   33.379593     3   QUINTET     B3g 
  324    33.072087   33.425100    15   SINGLET     B3u 
  325    33.127070   33.480083     5   QUINTET     Ag  
  326    33.227140   33.580153    20   TRIPLET     B3u 
  327    33.277685   33.630698    18   TRIPLET     Au  
  328    33.515487   33.868500    16   SINGLET     B3u 
  329    33.521394   33.874406    15   SINGLET     Au  
  330    33.527011   33.880023    19   TRIPLET     Au  
  331    33.571624   33.924636    17   TRIPLET     B3g 
  332    33.592653   33.945665    21   TRIPLET     B3u 
  333    33.644933   33.997945    18   SINGLET     B2u 
  334    33.646906   33.999918    22   SINGLET     Ag  
  335    33.704197   34.057209    13   TRIPLET     Ag  
  336    33.710316   34.063329    20   TRIPLET     Au  
  337    33.883830   34.236842    17   SINGLET     B3u 
  338    33.891299   34.244312    14   TRIPLET     Ag  
  339    33.892293   34.245306    18   TRIPLET     B3g 
  340    33.932295   34.285308    15   SINGLET     B3g 
  341    34.030470   34.383482    16   SINGLET     Au  
  342    34.123991   34.477004    23   SINGLET     Ag  
  343    34.190841   34.543854    19   TRIPLET     B3g 
  344    34.270245   34.623258    21   TRIPLET     Au  
  345    34.342156   34.695169    24   SINGLET     Ag  
  346    34.421164   34.774177    17   SINGLET     Au  
  347    34.425362   34.778374     6   QUINTET     Ag  
  348    34.750942   35.103954    16   SINGLET     B3g 
  349    34.943688   35.296700    15   TRIPLET     Ag  
  350    34.999452   35.352464    22   TRIPLET     Au  
  351    35.100419   35.453432    25   SINGLET     Ag  
  352    35.189593   35.542606     4   QUINTET     B3g 
  353    35.276649   35.629662    26   SINGLET     Ag  
  354    35.353001   35.706014    18   SINGLET     Au  
  355    35.434771   35.787783    16   TRIPLET     Ag  
  356    35.845845   36.198858    20   TRIPLET     B3g 
  357    36.113323   36.466335    22   TRIPLET     B3u 
  358    36.201449   36.554462    17   SINGLET     B3g 
  359    36.347017   36.700029    21   TRIPLET     B3g 
  360    36.437782   36.790794    22   TRIPLET     B3g 
  361    36.586151   36.939164    27   SINGLET     Ag  
  362    36.641716   36.994729    17   TRIPLET     Ag  
  363    36.661058   37.014071    18   SINGLET     B3u 
  364    37.151004   37.504016    18   SINGLET     B3g 
  365    37.212716   37.565729    28   SINGLET     Ag  
  366    37.668267   38.021279    18   TRIPLET     Ag  
  367    37.717834   38.070846    23   TRIPLET     Au  
  368    37.846183   38.199195    23   TRIPLET     B3g 
  369    37.935324   38.288337    19   SINGLET     Au  
  370    38.036586   38.389599    23   TRIPLET     B3u 
  371    38.446369   38.799382    19   SINGLET     B3u 
  372    38.458150   38.811162    29   SINGLET     Ag  
  373    38.602810   38.955823    19   SINGLET     B3g 
  374    38.726792   39.079805    24   TRIPLET     B3g 
  375    39.035397   39.388409    24   TRIPLET     B3u 
  376    39.131424   39.484436    23   TRIPLET     B2u 
  377    39.382850   39.735862    25   TRIPLET     B1u 
  378    39.540225   39.893238    20   SINGLET     B3g 
  379    39.567769   39.920782    21   SINGLET     B1u 
  380    39.718606   40.071619    20   SINGLET     B3u 
  381    39.868189   40.221201    19   SINGLET     B2u 
  382    40.372866   40.725878    30   SINGLET     Ag  
  383    40.394879   40.747892    26   TRIPLET     B1u 
  384    40.673661   41.026674    24   TRIPLET     Au  
  385    40.951893   41.304905    20   SINGLET     Au  
  386    41.108263   41.461275    22   SINGLET     B1u 
  387    41.331818   41.684830    24   TRIPLET     B2u 
  388    41.605453   41.958466    23   TRIPLET     B1g 
  389    41.833568   42.186581    19   SINGLET     B1g 
  390    42.011835   42.364848    23   TRIPLET     B2g 
  391    42.165061   42.518073    20   SINGLET     B2u 
  392    42.323556   42.676568    19   SINGLET     B2g 
  393    42.346719   42.699731    31   SINGLET     Ag  
  394    43.103124   43.456137    24   TRIPLET     B2g 
  395    43.322978   43.675990    20   SINGLET     B2g 
  396    44.558323   44.911336    24   TRIPLET     B1g 
  397    44.868809   45.221822    20   SINGLET     B1g 
  398    44.907815   45.260828    27   TRIPLET     B1u 
  399    48.041502   48.394515    23   SINGLET     B1u 
  400    50.691278   51.044291    32   SINGLET     Ag  
           The "+" symbol indicates the root used.
 *******************************************************************************
 ** Cite this program as: MOPAC2016, Version: 21.298M, James J. P. Stewart,   **
 **                           web-site: HTTP://OpenMOPAC.net.                 **
 *******************************************************************************
 **                                                                           **
 **                                MOPAC2016                                  **
 **                                                                           **
 *******************************************************************************

                              PM7 CALCULATION RESULTS

 *******************************************************************************
 *  CALCULATION DONE:                                Fri Oct 29 13:45:21 2021  *
 *  CISDT      - C.I. USES 1, 2 AND 3 ELECTRON EXCITATIONS
 *  C.I.=6     - 6 M.O.S TO BE USED IN C.I.
 *  1SCF       - DO 1 SCF AND THEN STOP 
 *  T=         - A TIME OF 172800.0 SECONDS REQUESTED
 *  DUMP=N     - RESTART FILE WRITTEN EVERY 7200.0 SECONDS REQUESTED
 *  MECI       - M.E.C.I. WORKING TO BE PRINTED
 *******************************************************************************
1SCF C.I.=6 MECI CISDT
 comment1
 comment2
   ATOM   CHEMICAL          X               Y               Z
  NUMBER   SYMBOL      (ANGSTROMS)     (ANGSTROMS)     (ANGSTROMS)
 
     1       C         -0.67000000  *   0.00000000  *   0.00000000  *
     2       C          0.67000000  *   0.00000000  *   0.00000000  *
     3       H         -1.23000000  *  -0.93000000  *   0.00000000  *
     4       H         -1.23000000  *   0.93000000  *   0.00000000  *
     5       H          1.23000000  *  -0.93000000  *   0.00000000  *
     6       H          1.23000000  *   0.93000000  *   0.00000000  *
 


          CARTESIAN COORDINATES 

    NO.       ATOM           X           Y           Z

     1         C         -0.6700      0.0000      0.0000
     2         C          0.6700      0.0000      0.0000
     3         H         -1.2300     -0.9300      0.0000
     4         H         -1.2300      0.9300      0.0000
     5         H          1.2300     -0.9300      0.0000
     6         H          1.2300      0.9300      0.0000

 General Reference for PM7:
 "Optimization of Parameters for Semiempirical Methods VI: More Modifications to the 
 NDDO Approximations and Re-optimization of Parameters", J. J. P. Stewart, J. Mol. Mod., 1:32, 19 (2013)
 https://link.springer.com/article/10.1007/s00894-012-1667-x

           Empirical Formula: C2 H4  =     6 atoms



      MOLECULAR POINT GROUP   :   D2h 


      RHF CALCULATION, NO. OF DOUBLY OCCUPIED LEVELS = 6


 -------------------------------------------------------------------------------
 1SCF C.I.=6 MECI CISDT
 comment1
 comment2


     1SCF WAS SPECIFIED, SO BFGS WAS NOT USED                 
     SCF FIELD WAS ACHIEVED                                   


                              PM7 CALCULATION
                                                       MOPAC2016 (Version: 21.298M)
                                                       Fri Oct 29 13:45:23 2021




          FINAL HEAT OF FORMATION =          6.58382 KCAL/MOL =      27.54671 KJ/MOL


          COSMO AREA              =         71.45 SQUARE ANGSTROMS
          COSMO VOLUME            =         53.18 CUBIC ANGSTROMS

          IONIZATION POTENTIAL    =         10.684421 EV          STATE:   1 SINGLET Ag
          HOMO LUMO ENERGIES (EV) =        -10.684  0.976
          NO. OF FILLED LEVELS    =          6
          MOLECULAR WEIGHT        =         28.0536         POINT GROUP:  D2h 

          MOLECULAR DIMENSIONS (Angstroms)

            Atom       Atom       Distance
            H     5    H     4     3.08402
            H     6    H     3     2.96729
            C     1    C     2     0.00000


          SCF CALCULATIONS        =          1
 
          WALL-CLOCK TIME         =          7.590 SECONDS
          COMPUTATION TIME        =          9.127 SECONDS




   ATOM   CHEMICAL          X               Y               Z
  NUMBER   SYMBOL      (ANGSTROMS)     (ANGSTROMS)     (ANGSTROMS)
 
     1       C         -0.67000000  *   0.00000000  *   0.00000000  *
     2       C          0.67000000  *   0.00000000  *   0.00000000  *
     3       H         -1.23000000  *  -0.93000000  *   0.00000000  *
     4       H         -1.23000000  *   0.93000000  *   0.00000000  *
     5       H          1.23000000  *  -0.93000000  *   0.00000000  *
     6       H          1.23000000  *   0.93000000  *   0.00000000  *

                             CARTESIAN COORDINATES

   1    C       -0.670000000     0.000000000     0.000000000
   2    C        0.670000000     0.000000000     0.000000000
   3    H       -1.230000000    -0.930000000     0.000000000
   4    H       -1.230000000     0.930000000     0.000000000
   5    H        1.230000000    -0.930000000     0.000000000
   6    H        1.230000000     0.930000000     0.000000000


           Empirical Formula: C2 H4  =     6 atoms



      MOLECULAR POINT GROUP   :   D2h 


                  EIGENVALUES  
 -26.77535 -20.00189 -16.32165 -14.22366 -12.19463 -10.68442   0.97572   5.48787
   5.57216   6.33974   6.41349   6.48301


              NET ATOMIC CHARGES AND DIPOLE CONTRIBUTIONS

  ATOM NO.   TYPE          CHARGE      No. of ELECS.   s-Pop       p-Pop       
    1          C          -0.283416        4.2834     1.10307     3.18035
    2          C          -0.283416        4.2834     1.10307     3.18035
    3          H           0.141708        0.8583     0.85829
    4          H           0.141708        0.8583     0.85829
    5          H           0.141708        0.8583     0.85829
    6          H           0.141708        0.8583     0.85829
 DIPOLE           X         Y         Z       TOTAL
 POINT-CHG.     0.000     0.000     0.000     0.000
 HYBRID        -0.000    -0.000    -0.000     0.000
 SUM            0.000     0.000    -0.000     0.000


          ATOMIC ORBITAL ELECTRON POPULATIONS

     Atom    s        px        py        pz   
    1  C   1.10307   1.04651   1.13377   1.00008
    2  C   1.10307   1.04651   1.13377   1.00008
    3  H   0.85829
    4  H   0.85829
    5  H   0.85829
    6  H   0.85829


          MULTI-ELECTRON CONFIGURATION INTERACTION CALCULATION


          COMPONENT OF SPIN  =  0.0


           NO OF CONFIGURATIONS CONSIDERED = 282

 CONFIGURATIONS CONSIDERED IN C.I.      
 M.O. NUMBER :         4   5   6   7   8   9
          ENERGY

              1        1   1   1   0   0   0
          0.0000       1   1   1   0   0   0

              2        1   1   1   0   0   0
          4.1841       1   1   0   1   0   0

              3        1   1   1   0   0   0
          8.5463       1   1   0   0   1   0

              4        1   1   1   0   0   0
          7.9440       1   1   0   0   0   1

              5        1   1   1   0   0   0
          5.4405       1   0   1   1   0   0

              6        1   1   1   0   0   0
         10.0224       1   0   1   0   1   0

              7        1   1   1   0   0   0
         10.0667       1   0   1   0   0   1

              8        1   1   1   0   0   0
         14.2394       1   0   0   1   1   0

              9        1   1   1   0   0   0
         14.1158       1   0   0   1   0   1

             10        1   1   1   0   0   0
         17.9733       1   0   0   0   1   1

             11        1   1   1   0   0   0
          6.9964       0   1   1   1   0   0

             12        1   1   1   0   0   0
         12.1190       0   1   1   0   1   0

             13        1   1   1   0   0   0
         11.1961       0   1   1   0   0   1

             14        1   1   1   0   0   0
         16.1961       0   1   0   1   1   0

             15        1   1   1   0   0   0
         15.1053       0   1   0   1   0   1

             16        1   1   1   0   0   0
         19.5036       0   1   0   0   1   1

             17        1   1   1   0   0   0
         17.0096       0   0   1   1   1   0

             18        1   1   1   0   0   0
         16.5653       0   0   1   1   0   1

             19        1   1   1   0   0   0
         21.1833       0   0   1   0   1   1

             20        1   1   1   0   0   0
         25.1253       0   0   0   1   1   1

             21        1   1   0   1   0   0
          4.1841       1   1   1   0   0   0

             22        1   1   0   1   0   0
          8.3682       1   1   0   1   0   0

             23        1   1   0   1   0   0
         12.7304       1   1   0   0   1   0

             24        1   1   0   1   0   0
         12.1281       1   1   0   0   0   1

             25        1   1   0   1   0   0
          9.6247       1   0   1   1   0   0

             26        1   1   0   1   0   0
         14.2065       1   0   1   0   1   0

             27        1   1   0   1   0   0
         14.2509       1   0   1   0   0   1

             28        1   1   0   1   0   0
         18.4235       1   0   0   1   1   0

             29        1   1   0   1   0   0
         18.2999       1   0   0   1   0   1

             30        1   1   0   1   0   0
         22.1574       1   0   0   0   1   1

             31        1   1   0   1   0   0
         11.1805       0   1   1   1   0   0

             32        1   1   0   1   0   0
         16.3032       0   1   1   0   1   0

             33        1   1   0   1   0   0
         15.3802       0   1   1   0   0   1

             34        1   1   0   1   0   0
         20.3802       0   1   0   1   1   0

             35        1   1   0   1   0   0
         19.2894       0   1   0   1   0   1

             36        1   1   0   1   0   0
         23.6877       0   1   0   0   1   1

             37        1   1   0   1   0   0
         21.1937       0   0   1   1   1   0

             38        1   1   0   1   0   0
         20.7494       0   0   1   1   0   1

             39        1   1   0   1   0   0
         25.3674       0   0   1   0   1   1

             40        1   1   0   0   1   0
          8.5463       1   1   1   0   0   0

             41        1   1   0   0   1   0
         12.7304       1   1   0   1   0   0

             42        1   1   0   0   1   0
         18.4765       1   1   0   0   1   0

             43        1   1   0   0   1   0
         17.2663       1   1   0   0   0   1

             44        1   1   0   0   1   0
         12.6805       1   0   1   1   0   0

             45        1   1   0   0   1   0
         18.6463       1   0   1   0   1   0

             46        1   1   0   0   1   0
         18.0827       1   0   1   0   0   1

             47        1   1   0   0   1   0
         22.8633       1   0   0   1   1   0

             48        1   1   0   0   1   0
         22.1318       1   0   0   1   0   1

             49        1   1   0   0   1   0
         27.3732       1   0   0   0   1   1

             50        1   1   0   0   1   0
         14.7184       0   1   1   1   0   0

             51        1   1   0   0   1   0
         21.2251       0   1   1   0   1   0

             52        1   1   0   0   1   0
         19.6942       0   1   1   0   0   1

             53        1   1   0   0   1   0
         25.3022       0   1   0   1   1   0

             54        1   1   0   0   1   0
         23.6033       0   1   0   1   0   1

             55        1   1   0   0   1   0
         29.3856       0   1   0   0   1   1

             56        1   1   0   0   1   0
         24.8093       0   0   1   1   1   0

             57        1   1   0   0   1   0
         23.7571       0   0   1   1   0   1

             58        1   1   0   0   1   0
         29.7590       0   0   1   0   1   1

             59        1   1   0   0   0   1
          7.9440       1   1   1   0   0   0

             60        1   1   0   0   0   1
         12.1281       1   1   0   1   0   0

             61        1   1   0   0   0   1
         17.2663       1   1   0   0   1   0

             62        1   1   0   0   0   1
         16.8241       1   1   0   0   0   1

             63        1   1   0   0   0   1
         12.6317       1   0   1   1   0   0

             64        1   1   0   0   0   1
         17.9895       1   0   1   0   1   0

             65        1   1   0   0   0   1
         18.1940       1   0   1   0   0   1

             66        1   1   0   0   0   1
         22.2065       1   0   0   1   1   0

             67        1   1   0   0   0   1
         22.2431       1   0   0   1   0   1

             68        1   1   0   0   0   1
         26.8765       1   0   0   0   1   1

             69        1   1   0   0   0   1
         13.9875       0   1   1   1   0   0

             70        1   1   0   0   0   1
         19.8862       0   1   1   0   1   0

             71        1   1   0   0   0   1
         19.1233       0   1   1   0   0   1

             72        1   1   0   0   0   1
         23.9632       0   1   0   1   1   0

             73        1   1   0   0   0   1
         23.0325       0   1   0   1   0   1

             74        1   1   0   0   0   1
         28.2068       0   1   0   0   1   1

             75        1   1   0   0   0   1
         24.0238       0   0   1   1   1   0

             76        1   1   0   0   0   1
         23.7397       0   0   1   1   0   1

             77        1   1   0   0   0   1
         29.1337       0   0   1   0   1   1

             78        1   0   1   1   0   0
          5.4405       1   1   1   0   0   0

             79        1   0   1   1   0   0
          9.6247       1   1   0   1   0   0

             80        1   0   1   1   0   0
         12.6805       1   1   0   0   1   0

             81        1   0   1   1   0   0
         12.6317       1   1   0   0   0   1

             82        1   0   1   1   0   0
         12.1319       1   0   1   1   0   0

             83        1   0   1   1   0   0
         15.4074       1   0   1   0   1   0

[...]

            246        0   1   0   0   1   1
         23.6734       1   0   1   1   0   0

            247        0   1   0   0   1   1
         29.5910       1   0   1   0   1   0

            248        0   1   0   0   1   1
         29.0589       1   0   1   0   0   1

            249        0   1   0   0   1   1
         25.7053       0   1   1   1   0   0

            250        0   1   0   0   1   1
         32.1637       0   1   1   0   1   0

            251        0   1   0   0   1   1
         30.6642       0   1   1   0   0   1

            252        0   0   1   1   1   0
         17.0096       1   1   1   0   0   0

            253        0   0   1   1   1   0
         21.1937       1   1   0   1   0   0

            254        0   0   1   1   1   0
         24.8093       1   1   0   0   1   0

            255        0   0   1   1   1   0
         24.0238       1   1   0   0   0   1

            256        0   0   1   1   1   0
         23.1831       1   0   1   1   0   0

            257        0   0   1   1   1   0
         27.0184       1   0   1   0   1   0

            258        0   0   1   1   1   0
         26.8795       1   0   1   0   0   1

            259        0   0   1   1   1   0
         24.9527       0   1   1   1   0   0

            260        0   0   1   1   1   0
         29.3288       0   1   1   0   1   0

            261        0   0   1   1   1   0
         28.2226       0   1   1   0   0   1

            262        0   0   1   1   0   1
         16.5653       1   1   1   0   0   0

            263        0   0   1   1   0   1
         20.7494       1   1   0   1   0   0

            264        0   0   1   1   0   1
         23.7571       1   1   0   0   1   0

            265        0   0   1   1   0   1
         23.7397       1   1   0   0   0   1

            266        0   0   1   1   0   1
         23.2923       1   0   1   1   0   0

            267        0   0   1   1   0   1
         26.5196       1   0   1   0   1   0

            268        0   0   1   1   0   1
         27.1489       1   0   1   0   0   1

            269        0   0   1   1   0   1
         24.3797       0   1   1   1   0   0

            270        0   0   1   1   0   1
         28.1479       0   1   1   0   1   0

            271        0   0   1   1   0   1
         27.8099       0   1   1   0   0   1

            272        0   0   1   0   1   1
         21.1833       1   1   1   0   0   0

            273        0   0   1   0   1   1
         25.3674       1   1   0   1   0   0

            274        0   0   1   0   1   1
         29.7590       1   1   0   0   1   0

            275        0   0   1   0   1   1
         29.1337       1   1   0   0   0   1

            276        0   0   1   0   1   1
         26.6040       1   0   1   1   0   0

            277        0   0   1   0   1   1
         31.2152       1   0   1   0   1   0

            278        0   0   1   0   1   1
         31.2365       1   0   1   0   0   1

            279        0   0   1   0   1   1
         28.1735       0   1   1   1   0   0

            280        0   0   1   0   1   1
         33.3256       0   1   1   0   1   0

            281        0   0   1   0   1   1
         32.3796       0   1   1   0   0   1

            282        0   0   0   1   1   1
         25.1253       1   1   1   0   0   0

  STATE       ENERGY (EV)        Q.N.  SPIN   SYMMETRY              POLARIZATION
         ABSOLUTE     RELATIVE                                X           Y           Z

    1+   -0.350381    0.000000     1+  SINGLET     Ag  
    2     2.627951    2.978332     1   TRIPLET     B1u 
    3     5.254110    5.604492     1   TRIPLET     B1g 
    4     5.452745    5.803126     1   SINGLET     B1u       1.0364      0.0000      0.0000
    5     5.525042    5.875423     1   SINGLET     B1g 
    6     6.723832    7.074213     1   TRIPLET     B2g 
    7     7.082128    7.432509     1   SINGLET     B2g 
    8     7.833561    8.183942     2   TRIPLET     B2g 
    9     8.009372    8.359754     2   SINGLET     B2g 
   10     8.400307    8.750688     2   TRIPLET     B1g 
   11     8.441569    8.791950     2   SINGLET     Ag  
   12     8.599546    8.949927     2   SINGLET     B1g 
   13     9.312303    9.662684     1   TRIPLET     B2u 
   14     9.351417    9.701798     2   TRIPLET     B1u 
   15     9.448236    9.798617     1   TRIPLET     Au  
   16     9.665385   10.015766     1   SINGLET     Au  
   17     9.797375   10.147756     2   SINGLET     B1u       0.3383      0.0000      0.0000
   18    10.091225   10.441606     1   SINGLET     B2u       0.0000      0.2044      0.0000
   19    10.825160   11.175542     1   TRIPLET     B3u 
   20    10.831828   11.182209     3   TRIPLET     B1u 
   21    11.225382   11.575763     1   SINGLET     B3u 
   22    11.345477   11.695858     3   SINGLET     B1u       0.2899      0.0000      0.0000
   23    11.545411   11.895792     2   TRIPLET     B2u 
   24    11.796996   12.147377     2   TRIPLET     B3u 
   25    11.892991   12.243372     1   QUINTET     B3g 
   26    12.060360   12.410741     3   SINGLET     Ag  
   27    12.063387   12.413768     1   QUINTET     Ag  
   28    12.196096   12.546477     2   SINGLET     B2u       0.0000      0.3636      0.0000
   29    12.427279   12.777660     2   SINGLET     B3u       0.0000      0.0000      0.0001
   30    12.498108   12.848489     1   TRIPLET     B3g 
   31    12.554836   12.905217     1   TRIPLET     Ag  
   32    12.589317   12.939698     2   TRIPLET     Au  
   33    12.700860   13.051241     2   TRIPLET     Ag  
   34    12.737228   13.087609     2   SINGLET     Au  
   35    12.800845   13.151226     2   TRIPLET     B3g 
   36    12.826856   13.177237     4   SINGLET     Ag  
   37    12.851638   13.202019     1   SINGLET     B3g 
   38    13.074515   13.424897     3   TRIPLET     B3g 
   39    13.310561   13.660942     2   QUINTET     Ag  
   40    13.578829   13.929210     2   SINGLET     B3g 
   41    14.086479   14.436860     3   TRIPLET     Ag  
   42    14.173684   14.524065     2   QUINTET     B3g 
   43    14.250008   14.600389     4   TRIPLET     Ag  
   44    14.382321   14.732702     5   SINGLET     Ag  
   45    14.722435   15.072816     4   TRIPLET     B3g 
   46    14.932997   15.283378     6   SINGLET     Ag  
   47    15.066053   15.416434     3   SINGLET     B3g 
   48    15.068299   15.418680     3   TRIPLET     Au  
   49    15.142013   15.492394     5   TRIPLET     B3g 
   50    15.224979   15.575360     6   TRIPLET     B3g 
   51    15.293915   15.644296     5   TRIPLET     Ag  
   52    15.336756   15.687137     3   SINGLET     Au  
   53    15.533236   15.883617     3   TRIPLET     B3u 
   54    15.699045   16.049426     1   QUINTET     Au  
   55    15.699420   16.049801     7   SINGLET     Ag  
   56    15.957795   16.308176     4   SINGLET     B3g 
   57    16.010737   16.361119     1   QUINTET     B3u 
   58    16.051157   16.401538     3   SINGLET     B3u 
   59    16.411376   16.761758     4   TRIPLET     Au  
   60    16.552547   16.902928     6   TRIPLET     Ag  
   61    16.569625   16.920006     8   SINGLET     Ag  
   62    16.571841   16.922222     4   TRIPLET     B3u 
   63    16.603209   16.953590     5   TRIPLET     Au  
   64    16.728805   17.079186     7   TRIPLET     B3g 
   65    16.834166   17.184548     4   SINGLET     Au  
   66    16.859186   17.209567     5   TRIPLET     B3u 
   67    17.121431   17.471813     2   QUINTET     B3u 
   68    17.149213   17.499595     6   TRIPLET     Au  
   69    17.166450   17.516831     4   SINGLET     B3u 
   70    17.201801   17.552183     6   TRIPLET     B3u 
   71    17.370117   17.720498     9   SINGLET     Ag  
   72    17.504895   17.855276     5   SINGLET     B3g 
   73    17.523136   17.873517     8   TRIPLET     B3g 
   74    17.552511   17.902892     5   SINGLET     Au  
   75    17.567854   17.918235     7   TRIPLET     B3u 
   76    17.587129   17.937511     5   SINGLET     B3u 
   77    17.861166   18.211547     7   TRIPLET     Au  
   78    17.867337   18.217718     8   TRIPLET     B3u 
   79    17.999914   18.350296     3   TRIPLET     B2u 
   80    18.145217   18.495598     6   SINGLET     Au  
   81    18.194209   18.544590     4   TRIPLET     B1u 
   82    18.205158   18.555539     6   SINGLET     B3u 
   83    18.223776   18.574157     6   SINGLET     B3g 
   84    18.231336   18.581717     9   TRIPLET     B3u 
   85    18.337970   18.688351     8   TRIPLET     Au  
   86    18.490654   18.841035     4   SINGLET     B1u       0.0017      0.0000      0.0000
   87    18.517862   18.868243     7   SINGLET     B3u 
   88    18.528147   18.878528    10   TRIPLET     B3u 
   89    18.557845   18.908226    10   SINGLET     Ag  
   90    18.639120   18.989501     7   SINGLET     Au  
   91    18.755975   19.106357     2   QUINTET     Au  
   92    18.801044   19.151425     3   SINGLET     B2u 
   93    18.813554   19.163935     8   SINGLET     B3u 
   94    19.174990   19.525371    11   TRIPLET     B3u 
   95    19.192279   19.542660     9   TRIPLET     Au  
   96    19.225731   19.576112     3   TRIPLET     B1g 
   97    19.380571   19.730952     5   TRIPLET     B1u 
   98    19.435519   19.785900    10   TRIPLET     Au  
   99    19.448803   19.799184     3   SINGLET     B1g 
  100    19.482043   19.832424     8   SINGLET     Au  
  101    19.654428   20.004809     9   TRIPLET     B3g 
  102    19.707622   20.058003     3   TRIPLET     B2g 
  103    19.758218   20.108599     1   QUINTET     B1g 
  104    19.773693   20.124074     9   SINGLET     B3u 
  105    19.791641   20.142022    11   SINGLET     Ag  
  106    19.945769   20.296150     5   SINGLET     B1u       0.0008      0.0000      0.0000
  107    19.962228   20.312609     3   SINGLET     B2g 
  108    19.982306   20.332687     3   QUINTET     Ag  
  109    20.055826   20.406208     7   SINGLET     B3g 
  110    20.071193   20.421574    11   TRIPLET     Au  
  111    20.114620   20.465001     9   SINGLET     Au  
  112    20.127395   20.477776     1   QUINTET     B2g 
  113    20.252975   20.603356     4   TRIPLET     B2u 
  114    20.268754   20.619135    12   TRIPLET     Au  
  115    20.378103   20.728484     4   TRIPLET     B1g 
  116    20.408954   20.759335    12   SINGLET     Ag  
  117    20.619452   20.969833     5   TRIPLET     B1g 
  118    20.697310   21.047691     4   TRIPLET     B2g 
  119    20.746141   21.096522    10   TRIPLET     B3g 
  120    20.794745   21.145126    10   SINGLET     Au  
  121    20.855505   21.205886     4   SINGLET     B1g 
  122    20.903510   21.253891     5   TRIPLET     B2g 
  123    20.943435   21.293816     4   SINGLET     B2u       0.0000      0.0000      0.0000
  124    21.071310   21.421691     7   TRIPLET     Ag  
  125    21.103442   21.453823     2   QUINTET     B2g 
  126    21.178080   21.528461    12   TRIPLET     B3u 
  127    21.185402   21.535783     4   SINGLET     B2g 
  128    21.190413   21.540794     6   TRIPLET     B1g 
  129    21.324942   21.675323     6   TRIPLET     B2g 
  130    21.455663   21.806044     8   TRIPLET     Ag  
  131    21.513935   21.864316     9   TRIPLET     Ag  
  132    21.570219   21.920600     5   SINGLET     B1g 
  133    21.581694   21.932075     5   SINGLET     B2g 
  134    21.682164   22.032545    13   SINGLET     Ag  
  135    21.692543   22.042924    10   SINGLET     B3u 
  136    21.694428   22.044809     7   TRIPLET     B2g 
  137    21.820043   22.170424     8   SINGLET     B3g 
  138    21.864138   22.214519     7   TRIPLET     B1g 
  139    21.903157   22.253538     1   QUINTET     B2u 
  140    21.904963   22.255344     1   SEPTET      B1u 
  141    21.951212   22.301594     8   TRIPLET     B2g 
  142    22.006173   22.356554    11   TRIPLET     B3g 
  143    22.176081   22.526462    14   SINGLET     Ag  
  144    22.194653   22.545034     6   SINGLET     B1g 
  145    22.261751   22.612132     9   SINGLET     B3g 
  146    22.277062   22.627443     6   SINGLET     B2g 
  147    22.296921   22.647302     6   TRIPLET     B1u 
  148    22.348993   22.699374     9   TRIPLET     B2g 
  149    22.403987   22.754368     5   TRIPLET     B2u 
  150    22.451795   22.802176     8   TRIPLET     B1g 
  151    22.466870   22.817251    10   TRIPLET     B2g 
  152    22.471979   22.822360     7   SINGLET     B2g 
  153    22.508305   22.858686     6   TRIPLET     B2u 
  154    22.725104   23.075485     7   SINGLET     B1g 
  155    22.758433   23.108814     7   TRIPLET     B2u 
  156    22.765526   23.115907     5   SINGLET     B2u 
  157    22.773579   23.123960     2   QUINTET     B1g 
  158    22.839279   23.189660     1   QUINTET     B1u 
  159    22.854425   23.204806     7   TRIPLET     B1u 
  160    22.877022   23.227403     8   SINGLET     B2g 
  161    22.882477   23.232858     2   QUINTET     B2u 
  162    23.091620   23.442001    12   TRIPLET     B3g 
  163    23.143548   23.493929     6   SINGLET     B1u 
  164    23.149536   23.499917     8   TRIPLET     B1u 
  165    23.213985   23.564366     9   TRIPLET     B1g 
  166    23.231999   23.582380    11   TRIPLET     B2g 
  167    23.248531   23.598912    15   SINGLET     Ag  
  168    23.398548   23.748929     2   QUINTET     B1u 
  169    23.464814   23.815195     6   SINGLET     B2u 
  170    23.471188   23.821569     9   TRIPLET     B1u 
  171    23.478945   23.829326    10   TRIPLET     B1g 
  172    23.481834   23.832215     9   SINGLET     B2g 
  173    23.484056   23.834437     3   QUINTET     B1u 
  174    23.491027   23.841408     8   SINGLET     B1g 
  175    23.550051   23.900432     8   TRIPLET     B2u 
  176    23.778860   24.129241     4   QUINTET     B1u 
  177    23.873546   24.223927    10   TRIPLET     B1u 
  178    23.888328   24.238709     7   SINGLET     B2u 
  179    23.909811   24.260192    11   TRIPLET     B1g 
  180    24.113671   24.464052     9   TRIPLET     B2u 
  181    24.114815   24.465196    11   TRIPLET     B1u 
  182    24.116964   24.467345     7   SINGLET     B1u 
  183    24.235103   24.585484     3   QUINTET     B2u 
  184    24.285877   24.636258    12   TRIPLET     B1u 
  185    24.314895   24.665277    13   TRIPLET     B1u 
  186    24.328359   24.678740     9   SINGLET     B1g 
  187    24.368726   24.719107    10   TRIPLET     B2u 
  188    24.394882   24.745263    12   TRIPLET     B1g 
  189    24.451771   24.802152    10   SINGLET     B3g 
  190    24.596921   24.947303    14   TRIPLET     B1u 
  191    24.614287   24.964669     8   SINGLET     B1u 
  192    24.681390   25.031771    10   SINGLET     B1g 
  193    24.722692   25.073073     9   SINGLET     B1u 
  194    24.733309   25.083690    11   TRIPLET     B2u 
  195    24.775656   25.126037    15   TRIPLET     B1u 
  196    24.816701   25.167082     8   SINGLET     B2u 
  197    24.935063   25.285444    12   TRIPLET     B2u 
  198    25.220779   25.571160    10   SINGLET     B1u 
  199    25.232393   25.582774     9   SINGLET     B2u 
  200    25.272052   25.622434     4   QUINTET     B2u 
  201    25.303209   25.653591    13   TRIPLET     B2u 
  202    25.326520   25.676902    12   TRIPLET     B2g 
  203    25.343944   25.694325    16   SINGLET     Ag  
  204    25.532283   25.882664     5   QUINTET     B1u 
  205    25.611903   25.962284    10   SINGLET     B2g 
  206    25.622092   25.972474    11   SINGLET     B1u       0.0001      0.0000      0.0000
  207    25.648856   25.999237    10   SINGLET     B2u 
  208    25.733318   26.083699     3   QUINTET     B1g 
  209    25.743385   26.093766    16   TRIPLET     B1u 
  210    25.867207   26.217588    14   TRIPLET     B2u 
  211    25.970569   26.320950    12   SINGLET     B1u 
  212    26.165666   26.516047    15   TRIPLET     B2u 
  213    26.182191   26.532572    11   SINGLET     B2u 
  214    26.251193   26.601575    17   TRIPLET     B1u 
  215    26.341434   26.691815    13   TRIPLET     B1g 
  216    26.494597   26.844978    14   TRIPLET     B1g 
  217    26.495574   26.845955    13   TRIPLET     B2g 
  218    26.615397   26.965778    11   SINGLET     B1g 
  219    26.679503   27.029884    16   TRIPLET     B2u 
  220    26.803237   27.153618    15   TRIPLET     B1g 
  221    26.815303   27.165685    13   SINGLET     B1u       0.0001      0.0000      0.0000
  222    26.821311   27.171692    11   SINGLET     B2g 
  223    26.842942   27.193323    18   TRIPLET     B1u 
  224    26.929846   27.280227    14   TRIPLET     B2g 
  225    26.973676   27.324057    17   TRIPLET     B2u 
  226    27.029868   27.380249    19   TRIPLET     B1u 
  227    27.092965   27.443346    14   SINGLET     B1u 
  228    27.109321   27.459702    20   TRIPLET     B1u 
  229    27.113039   27.463420     3   QUINTET     B2g 
  230    27.253892   27.604273    12   SINGLET     B1g 
  231    27.282135   27.632516    12   SINGLET     B2u 
  232    27.326501   27.676883    12   SINGLET     B2g 
  233    27.506738   27.857120    13   SINGLET     B2u 
  234    27.577376   27.927757    18   TRIPLET     B2u 
  235    27.685785   28.036166    15   TRIPLET     B2g 
  236    27.762520   28.112901    16   TRIPLET     B2g 
  237    27.795953   28.146334    15   SINGLET     B1u       0.0001      0.0000      0.0000
  238    27.813891   28.164272    16   TRIPLET     B1g 
  239    27.894860   28.245241    21   TRIPLET     B1u 
  240    27.975832   28.326214    13   SINGLET     B2g 
  241    27.997647   28.348028    14   SINGLET     B2u 
  242    28.080875   28.431257    17   TRIPLET     B1g 
  243    28.119535   28.469916    19   TRIPLET     B2u 
  244    28.128885   28.479266     4   QUINTET     B2g 
  245    28.182019   28.532400    13   SINGLET     B1g 
  246    28.239126   28.589507    14   SINGLET     B1g 
  247    28.493335   28.843716    17   TRIPLET     B2g 
  248    28.603904   28.954285    15   SINGLET     B2u 
  249    28.613132   28.963514    20   TRIPLET     B2u 
  250    28.702965   29.053346    16   SINGLET     B1u 
  251    28.734045   29.084426    14   SINGLET     B2g 
  252    28.742979   29.093360    18   TRIPLET     B2g 
  253    28.823087   29.173468     4   QUINTET     B1g 
  254    28.883766   29.234147    19   TRIPLET     B2g 
  255    29.037953   29.388334    15   SINGLET     B2g 
  256    29.231890   29.582271    22   TRIPLET     B1u 
  257    29.236361   29.586742    18   TRIPLET     B1g 
  258    29.259916   29.610297    20   TRIPLET     B2g 
  259    29.462973   29.813355    19   TRIPLET     B1g 
  260    29.538003   29.888384    15   SINGLET     B1g 
  261    29.626029   29.976410    17   SINGLET     B1u 
  262    29.703752   30.054133    21   TRIPLET     B2g 
  263    29.704500   30.054881    16   SINGLET     B2g 
  264    29.816694   30.167075    20   TRIPLET     B1g 
  265    29.856116   30.206497    16   SINGLET     B1g 
  266    29.946795   30.297176    17   SINGLET     B2g 
  267    29.977003   30.327384    16   SINGLET     B2u 
  268    30.097572   30.447953    21   TRIPLET     B1g 
  269    30.676392   31.026773    17   SINGLET     B1g 
  270    30.934421   31.284802    18   SINGLET     B1u 
  271    30.944231   31.294612    21   TRIPLET     B2u 
  272    31.111670   31.462051    22   TRIPLET     B1g 
  273    31.124345   31.474726    23   TRIPLET     B1u 
  274    31.301364   31.651745    18   SINGLET     B1g 
  275    31.438477   31.788858    19   SINGLET     B1u 
  276    31.686035   32.036416    17   SINGLET     B2u 
  277    32.210056   32.560438    22   TRIPLET     B2g 
  278    32.277703   32.628085    24   TRIPLET     B1u 
  279    32.495864   32.846245    18   SINGLET     B2g 
  280    33.104465   33.454846    22   TRIPLET     B2u 
  281    33.161029   33.511410    20   SINGLET     B1u 
  282    33.936835   34.287216    18   SINGLET     B2u 
           The "+" symbol indicates the root used.

 **********************
 *                    *
 * JOB ENDED NORMALLY *
 *                    *
 **********************



 TOTAL JOB TIME:            15.05 SECONDS

 == MOPAC DONE ==
