 *******************************************************************************
 ** Cite this program as: MOPAC2016, Version: 21.298M, James J. P. Stewart,   **
 **                           web-site: HTTP://OpenMOPAC.net.                 **
 *******************************************************************************
 **                                                                           **
 **                                MOPAC2016                                  **
 **                                                                           **
 *******************************************************************************

                              PM7 CALCULATION RESULTS

 *******************************************************************************
 *  CALCULATION DONE:                                Fri Oct 29 13:45:28 2021  *
 *  MOZYME     - USE LOCALIZED M.O.s IN SOLVING THE SCF EQUATIONS
 *  T=         - A TIME OF 172800.0 SECONDS REQUESTED
 *  DUMP=N     - RESTART FILE WRITTEN EVERY 7200.0 SECONDS REQUESTED
 *  VECTORS    - FINAL MOLECULAR ORBITALS TO BE PRINTED
 *******************************************************************************
VECTORS MOZYME
 Propane

   ATOM   CHEMICAL          X               Y               Z
  NUMBER   SYMBOL      (ANGSTROMS)     (ANGSTROMS)     (ANGSTROMS)
 
     1       C         -2.47938629  *   1.94891579  *   0.11190868  *
     2       C         -1.29827276  *   0.98387702  *   0.00729518  *
     3       C         -3.81010175  *   1.21964142  *  -0.07647847  *
     4       H         -1.38347707  *   0.16741450  *   0.73288952  *
     5       H         -0.34844936  *   1.49531165  *   0.19480817  *
     6       H         -1.23847661  *   0.53154082  *  -0.98851859  *
     7       H         -2.37857497  *   2.75130968  *  -0.64360323  *
     8       H         -2.46534850  *   2.45775798  *   1.09469749  *
     9       H         -3.85388474  *   0.71068126  *  -1.04535583  *
    10       H         -4.65461095  *   1.91488898  *  -0.02947366  *
    11       H         -3.96289721  *   0.46065065  *   0.69868957  *
 


          CARTESIAN COORDINATES 

    NO.       ATOM           X           Y           Z

     1         C         -2.4794      1.9489      0.1119
     2         C         -1.2983      0.9839      0.0073
     3         C         -3.8101      1.2196     -0.0765
     4         H         -1.3835      0.1674      0.7329
     5         H         -0.3484      1.4953      0.1948
     6         H         -1.2385      0.5315     -0.9885
     7         H         -2.3786      2.7513     -0.6436
     8         H         -2.4653      2.4578      1.0947
     9         H         -3.8539      0.7107     -1.0454
    10         H         -4.6546      1.9149     -0.0295
    11         H         -3.9629      0.4607      0.6987

 General Reference for PM7:
 "Optimization of Parameters for Semiempirical Methods VI: More Modifications to the 
 NDDO Approximations and Re-optimization of Parameters", J. J. P. Stewart, J. Mol. Mod., 1:32, 19 (2013)
 https://link.springer.com/article/10.1007/s00894-012-1667-x

           Empirical Formula: C3 H8  =    11 atoms



      MOLECULAR POINT GROUP   :   C2v 

          NO CHARGES FOUND.

          COMPUTED CHARGE ON SYSTEM: +0

          Geometry optimization using EF

     GRADIENT =  0.83836 IS LESS THAN CUTOFF =  1.00000



 -------------------------------------------------------------------------------
 VECTORS MOZYME
 Propane



     GRADIENTS WERE INITIALLY ACCEPTABLY SMALL                
     SCF FIELD WAS ACHIEVED                                   


                              PM7 CALCULATION
                                                       MOPAC2016 (Version: 21.298M)
                                                       Fri Oct 29 13:45:28 2021




          FINAL HEAT OF FORMATION =        -23.07582 KCAL/MOL =     -96.54924 KJ/MOL



          GRADIENT NORM           =          0.83836          =       0.25278 PER ATOM
          NO. OF FILLED LEVELS    =         10
          MOLECULAR WEIGHT        =         44.0962         POINT GROUP:  C2v 

          MOLECULAR DIMENSIONS (Angstroms)

            Atom       Atom       Distance
            H    10    H     5     4.33236
            H     7    H    11     2.81279
            H     8    H     6     2.76473


          SCF CALCULATIONS        =          1
 
          WALL-CLOCK TIME         =          0.008 SECONDS
          COMPUTATION TIME        =          0.011 SECONDS




   ATOM   CHEMICAL          X               Y               Z
  NUMBER   SYMBOL      (ANGSTROMS)     (ANGSTROMS)     (ANGSTROMS)
 
     1       C         -2.47938629  *   1.94891579  *   0.11190868  *
     2       C         -1.29827276  *   0.98387702  *   0.00729518  *
     3       C         -3.81010175  *   1.21964142  *  -0.07647847  *
     4       H         -1.38347707  *   0.16741450  *   0.73288952  *
     5       H         -0.34844936  *   1.49531165  *   0.19480817  *
     6       H         -1.23847661  *   0.53154082  *  -0.98851859  *
     7       H         -2.37857497  *   2.75130968  *  -0.64360323  *
     8       H         -2.46534850  *   2.45775798  *   1.09469749  *
     9       H         -3.85388474  *   0.71068126  *  -1.04535583  *
    10       H         -4.65461095  *   1.91488898  *  -0.02947366  *
    11       H         -3.96289721  *   0.46065065  *   0.69868957  *

                             CARTESIAN COORDINATES

   1    C       -2.479386294     1.948915792     0.111908676
   2    C       -1.298272763     0.983877020     0.007295183
   3    C       -3.810101751     1.219641420    -0.076478473
   4    H       -1.383477073     0.167414504     0.732889522
   5    H       -0.348449360     1.495311647     0.194808165
   6    H       -1.238476615     0.531540822    -0.988518590
   7    H       -2.378574965     2.751309683    -0.643603231
   8    H       -2.465348500     2.457757976     1.094697491
   9    H       -3.853884743     0.710681255    -1.045355833
  10    H       -4.654610952     1.914888983    -0.029473663
  11    H       -3.962897209     0.460650646     0.698689570


           Empirical Formula: C3 H8  =    11 atoms

          LOCALIZED MOLECULAR ORBITALS

           Occupied Set

  NUMBER OF CENTERS  LMO ENERGY     COMPOSITION OF ORBITALS 
                                    (AS PERCENT OF THE LMO)

   1    1.9768        -16.65279    C  1 56.51    H  7 43.19
   2    1.9768        -16.64928    C  1 56.51    H  8 43.19
   3    1.9723        -16.60674    C  2 56.77    H  5 42.98
   4    1.9723        -16.60235    C  3 56.77    H 10 42.98
   5    1.9683        -16.53954    C  2 57.02    H  4 42.77
   6    1.9683        -16.53849    C  3 57.02    H  9 42.77
   7    1.9681        -16.53140    C  3 57.01    H 11 42.79
   8    1.9681        -16.52874    C  2 57.01    H  6 42.79
   9    2.0079        -16.28938    C  2 50.70    C  1 49.09
  10    2.0079        -16.28332    C  3 50.70    C  1 49.09

          To print Virtual Set as well, use keyword "ALLVEC"



              NET ATOMIC CHARGES AND DIPOLE CONTRIBUTIONS

  ATOM NO.   TYPE          CHARGE      No. of ELECS.   s-Pop       p-Pop       
    1          C          -0.236353        4.2364     1.05013     3.18622
    2          C          -0.436759        4.4368     1.05190     3.38485
    3          C          -0.436757        4.4368     1.05195     3.38480
    4          H           0.142331        0.8577     0.85767
    5          H           0.138392        0.8616     0.86161
    6          H           0.141754        0.8582     0.85825
    7          H           0.132487        0.8675     0.86751
    8          H           0.132471        0.8675     0.86753
    9          H           0.142200        0.8578     0.85780
   10          H           0.138381        0.8616     0.86162
   11          H           0.141854        0.8581     0.85815
 DIPOLE           X         Y         Z       TOTAL
 POINT-CHG.     0.002     0.022     0.005     0.023
 HYBRID        -0.007    -0.075    -0.013     0.077
 SUM           -0.005    -0.053    -0.008     0.054


          ATOMIC ORBITAL ELECTRON POPULATIONS

     Atom    s        px        py        pz   
    1  C   1.05013   0.97730   1.05460   1.15432
    2  C   1.05190   1.08911   1.12228   1.17346
    3  C   1.05195   1.06958   1.14275   1.17247
    4  H   0.85767
    5  H   0.86161
    6  H   0.85825
    7  H   0.86751
    8  H   0.86753
    9  H   0.85780
   10  H   0.86162
   11  H   0.85815
 *******************************************************************************
 ** Cite this program as: MOPAC2016, Version: 21.298M, James J. P. Stewart,   **
 **                           web-site: HTTP://OpenMOPAC.net.                 **
 *******************************************************************************
 **                                                                           **
 **                                MOPAC2016                                  **
 **                                                                           **
 *******************************************************************************

                              PM7 CALCULATION RESULTS

 *******************************************************************************
 *  CALCULATION DONE:                                Fri Oct 29 13:45:28 2021  *
 *  MOZYME     - USE LOCALIZED M.O.s IN SOLVING THE SCF EQUATIONS
 *  T=         - A TIME OF 172800.0 SECONDS REQUESTED
 *  DUMP=N     - RESTART FILE WRITTEN EVERY 7200.0 SECONDS REQUESTED
 *  EIGEN      - CONVERT LMO's INTO EIGENVECTORS
 *******************************************************************************
MOZYME EIGEN
 Propane

   ATOM   CHEMICAL          X               Y               Z
  NUMBER   SYMBOL      (ANGSTROMS)     (ANGSTROMS)     (ANGSTROMS)
 
     1       C         -2.47938629  *   1.94891579  *   0.11190868  *
     2       C         -1.29827276  *   0.98387702  *   0.00729518  *
     3       C         -3.81010175  *   1.21964142  *  -0.07647847  *
     4       H         -1.38347707  *   0.16741450  *   0.73288952  *
     5       H         -0.34844936  *   1.49531165  *   0.19480817  *
     6       H         -1.23847661  *   0.53154082  *  -0.98851859  *
     7       H         -2.37857497  *   2.75130968  *  -0.64360323  *
     8       H         -2.46534850  *   2.45775798  *   1.09469749  *
     9       H         -3.85388474  *   0.71068126  *  -1.04535583  *
    10       H         -4.65461095  *   1.91488898  *  -0.02947366  *
    11       H         -3.96289721  *   0.46065065  *   0.69868957  *
 


          CARTESIAN COORDINATES 

    NO.       ATOM           X           Y           Z

     1         C         -2.4794      1.9489      0.1119
     2         C         -1.2983      0.9839      0.0073
     3         C         -3.8101      1.2196     -0.0765
     4         H         -1.3835      0.1674      0.7329
     5         H         -0.3484      1.4953      0.1948
     6         H         -1.2385      0.5315     -0.9885
     7         H         -2.3786      2.7513     -0.6436
     8         H         -2.4653      2.4578      1.0947
     9         H         -3.8539      0.7107     -1.0454
    10         H         -4.6546      1.9149     -0.0295
    11         H         -3.9629      0.4607      0.6987

 General Reference for PM7:
 "Optimization of Parameters for Semiempirical Methods VI: More Modifications to the 
 NDDO Approximations and Re-optimization of Parameters", J. J. P. Stewart, J. Mol. Mod., 1:32, 19 (2013)
 https://link.springer.com/article/10.1007/s00894-012-1667-x

           Empirical Formula: C3 H8  =    11 atoms



      MOLECULAR POINT GROUP   :   C2v 

          NO CHARGES FOUND.

          COMPUTED CHARGE ON SYSTEM: +0

          Geometry optimization using EF

     GRADIENT =  0.83836 IS LESS THAN CUTOFF =  1.00000



 -------------------------------------------------------------------------------
 MOZYME EIGEN
 Propane



     GRADIENTS WERE INITIALLY ACCEPTABLY SMALL                
     SCF FIELD WAS ACHIEVED                                   


                              PM7 CALCULATION
                                                       MOPAC2016 (Version: 21.298M)
                                                       Fri Oct 29 13:45:28 2021




          FINAL HEAT OF FORMATION =        -23.07582 KCAL/MOL =     -96.54924 KJ/MOL



          GRADIENT NORM           =          0.83836          =       0.25278 PER ATOM
          NO. OF FILLED LEVELS    =         10
          MOLECULAR WEIGHT        =         44.0962         POINT GROUP:  C2v 

          MOLECULAR DIMENSIONS (Angstroms)

            Atom       Atom       Distance
            H    10    H     5     4.33236
            H     7    H    11     2.81279
            H     8    H     6     2.76473


          SCF CALCULATIONS        =          1
 
          WALL-CLOCK TIME         =          0.020 SECONDS
          COMPUTATION TIME        =          0.022 SECONDS




   ATOM   CHEMICAL          X               Y               Z
  NUMBER   SYMBOL      (ANGSTROMS)     (ANGSTROMS)     (ANGSTROMS)
 
     1       C         -2.47938629  *   1.94891579  *   0.11190868  *
     2       C         -1.29827276  *   0.98387702  *   0.00729518  *
     3       C         -3.81010175  *   1.21964142  *  -0.07647847  *
     4       H         -1.38347707  *   0.16741450  *   0.73288952  *
     5       H         -0.34844936  *   1.49531165  *   0.19480817  *
     6       H         -1.23847661  *   0.53154082  *  -0.98851859  *
     7       H         -2.37857497  *   2.75130968  *  -0.64360323  *
     8       H         -2.46534850  *   2.45775798  *   1.09469749  *
     9       H         -3.85388474  *   0.71068126  *  -1.04535583  *
    10       H         -4.65461095  *   1.91488898  *  -0.02947366  *
    11       H         -3.96289721  *   0.46065065  *   0.69868957  *

                             CARTESIAN COORDINATES

   1    C       -2.479386294     1.948915792     0.111908676
   2    C       -1.298272763     0.983877020     0.007295183
   3    C       -3.810101751     1.219641420    -0.076478473
   4    H       -1.383477073     0.167414504     0.732889522
   5    H       -0.348449360     1.495311647     0.194808165
   6    H       -1.238476615     0.531540822    -0.988518590
   7    H       -2.378574965     2.751309683    -0.643603231
   8    H       -2.465348500     2.457757976     1.094697491
   9    H       -3.853884743     0.710681255    -1.045355833
  10    H       -4.654610952     1.914888983    -0.029473663
  11    H       -3.962897209     0.460650646     0.698689570


           Empirical Formula: C3 H8  =    11 atoms



              NET ATOMIC CHARGES AND DIPOLE CONTRIBUTIONS

  ATOM NO.   TYPE          CHARGE      No. of ELECS.   s-Pop       p-Pop       
    1          C          -0.236353        4.2364     1.05013     3.18622
    2          C          -0.436759        4.4368     1.05190     3.38485
    3          C          -0.436757        4.4368     1.05195     3.38480
    4          H           0.142331        0.8577     0.85767
    5          H           0.138392        0.8616     0.86161
    6          H           0.141754        0.8582     0.85825
    7          H           0.132487        0.8675     0.86751
    8          H           0.132471        0.8675     0.86753
    9          H           0.142200        0.8578     0.85780
   10          H           0.138381        0.8616     0.86162
   11          H           0.141854        0.8581     0.85815
 DIPOLE           X         Y         Z       TOTAL
 POINT-CHG.     0.002     0.022     0.005     0.023
 HYBRID        -0.007    -0.075    -0.013     0.077
 SUM           -0.005    -0.053    -0.008     0.054


          ATOMIC ORBITAL ELECTRON POPULATIONS

     Atom    s        px        py        pz   
    1  C   1.05013   0.97730   1.05460   1.15432
    2  C   1.05190   1.08911   1.12228   1.17346
    3  C   1.05195   1.06958   1.14275   1.17247
    4  H   0.85767
    5  H   0.86161
    6  H   0.85825
    7  H   0.86751
    8  H   0.86753
    9  H   0.85780
   10  H   0.86162
   11  H   0.85815
 *******************************************************************************
 ** Cite this program as: MOPAC2016, Version: 21.298M, James J. P. Stewart,   **
 **                           web-site: HTTP://OpenMOPAC.net.                 **
 *******************************************************************************
 **                                                                           **
 **                                MOPAC2016                                  **
 **                                                                           **
 *******************************************************************************

                              PM7 CALCULATION RESULTS

 *******************************************************************************
 *  CALCULATION DONE:                                Fri Oct 29 13:45:28 2021  *
 *  MOZYME     - USE LOCALIZED M.O.s IN SOLVING THE SCF EQUATIONS
 *  T=         - A TIME OF 172800.0 SECONDS REQUESTED
 *  DUMP=N     - RESTART FILE WRITTEN EVERY 7200.0 SECONDS REQUESTED
 *  VECTORS    - FINAL MOLECULAR ORBITALS TO BE PRINTED
 *  EIGEN      - CONVERT LMO's INTO EIGENVECTORS
 *******************************************************************************
VECTORS MOZYME EIGEN
 Propane

   ATOM   CHEMICAL          X               Y               Z
  NUMBER   SYMBOL      (ANGSTROMS)     (ANGSTROMS)     (ANGSTROMS)
 
     1       C         -2.47938629  *   1.94891579  *   0.11190868  *
     2       C         -1.29827276  *   0.98387702  *   0.00729518  *
     3       C         -3.81010175  *   1.21964142  *  -0.07647847  *
     4       H         -1.38347707  *   0.16741450  *   0.73288952  *
     5       H         -0.34844936  *   1.49531165  *   0.19480817  *
     6       H         -1.23847661  *   0.53154082  *  -0.98851859  *
     7       H         -2.37857497  *   2.75130968  *  -0.64360323  *
     8       H         -2.46534850  *   2.45775798  *   1.09469749  *
     9       H         -3.85388474  *   0.71068126  *  -1.04535583  *
    10       H         -4.65461095  *   1.91488898  *  -0.02947366  *
    11       H         -3.96289721  *   0.46065065  *   0.69868957  *
 


          CARTESIAN COORDINATES 

    NO.       ATOM           X           Y           Z

     1         C         -2.4794      1.9489      0.1119
     2         C         -1.2983      0.9839      0.0073
     3         C         -3.8101      1.2196     -0.0765
     4         H         -1.3835      0.1674      0.7329
     5         H         -0.3484      1.4953      0.1948
     6         H         -1.2385      0.5315     -0.9885
     7         H         -2.3786      2.7513     -0.6436
     8         H         -2.4653      2.4578      1.0947
     9         H         -3.8539      0.7107     -1.0454
    10         H         -4.6546      1.9149     -0.0295
    11         H         -3.9629      0.4607      0.6987

 General Reference for PM7:
 "Optimization of Parameters for Semiempirical Methods VI: More Modifications to the 
 NDDO Approximations and Re-optimization of Parameters", J. J. P. Stewart, J. Mol. Mod., 1:32, 19 (2013)
 https://link.springer.com/article/10.1007/s00894-012-1667-x

           Empirical Formula: C3 H8  =    11 atoms



      MOLECULAR POINT GROUP   :   C2v 

          NO CHARGES FOUND.

          COMPUTED CHARGE ON SYSTEM: +0

          Geometry optimization using EF

     GRADIENT =  0.83836 IS LESS THAN CUTOFF =  1.00000



 -------------------------------------------------------------------------------
 VECTORS MOZYME EIGEN
 Propane



     GRADIENTS WERE INITIALLY ACCEPTABLY SMALL                
     SCF FIELD WAS ACHIEVED                                   


                              PM7 CALCULATION
                                                       MOPAC2016 (Version: 21.298M)
                                                       Fri Oct 29 13:45:28 2021




          FINAL HEAT OF FORMATION =        -23.07582 KCAL/MOL =     -96.54924 KJ/MOL



          GRADIENT NORM           =          0.83836          =       0.25278 PER ATOM
          NO. OF FILLED LEVELS    =         10
          MOLECULAR WEIGHT        =         44.0962         POINT GROUP:  C2v 

          MOLECULAR DIMENSIONS (Angstroms)

            Atom       Atom       Distance
            H    10    H     5     4.33236
            H     7    H    11     2.81279
            H     8    H     6     2.76473


          SCF CALCULATIONS        =          1
 
          WALL-CLOCK TIME         =          0.031 SECONDS
          COMPUTATION TIME        =          0.032 SECONDS




   ATOM   CHEMICAL          X               Y               Z
  NUMBER   SYMBOL      (ANGSTROMS)     (ANGSTROMS)     (ANGSTROMS)
 
     1       C         -2.47938629  *   1.94891579  *   0.11190868  *
     2       C         -1.29827276  *   0.98387702  *   0.00729518  *
     3       C         -3.81010175  *   1.21964142  *  -0.07647847  *
     4       H         -1.38347707  *   0.16741450  *   0.73288952  *
     5       H         -0.34844936  *   1.49531165  *   0.19480817  *
     6       H         -1.23847661  *   0.53154082  *  -0.98851859  *
     7       H         -2.37857497  *   2.75130968  *  -0.64360323  *
     8       H         -2.46534850  *   2.45775798  *   1.09469749  *
     9       H         -3.85388474  *   0.71068126  *  -1.04535583  *
    10       H         -4.65461095  *   1.91488898  *  -0.02947366  *
    11       H         -3.96289721  *   0.46065065  *   0.69868957  *

                             CARTESIAN COORDINATES

   1    C       -2.479386294     1.948915792     0.111908676
   2    C       -1.298272763     0.983877020     0.007295183
   3    C       -3.810101751     1.219641420    -0.076478473
   4    H       -1.383477073     0.167414504     0.732889522
   5    H       -0.348449360     1.495311647     0.194808165
   6    H       -1.238476615     0.531540822    -0.988518590
   7    H       -2.378574965     2.751309683    -0.643603231
   8    H       -2.465348500     2.457757976     1.094697491
   9    H       -3.853884743     0.710681255    -1.045355833
  10    H       -4.654610952     1.914888983    -0.029473663
  11    H       -3.962897209     0.460650646     0.698689570


           Empirical Formula: C3 H8  =    11 atoms


  Occupied Orbitals



    Root No.     3       4       5       6       7       8       9      10  

             -20.119 -15.810 -15.091 -13.909 -13.152 -12.006 -11.967 -11.386

 S   C     1  0.4718 -0.0003 -0.0963 -0.0000  0.0003 -0.0006  0.0185 -0.0000 
 Px  C     1  0.0228  0.0259  0.0362 -0.4298 -0.0036 -0.4598 -0.0610 -0.0250 
 Py  C     1  0.2594  0.0893  0.4165  0.0399 -0.0012  0.0609 -0.5075 -0.0887 
 Pz  C     1  0.0448 -0.5239  0.0739 -0.0143 -0.0004 -0.0113 -0.0862  0.5358 
 S   C     2 -0.2641  0.0001  0.0282  0.0103  0.0004 -0.0727  0.0652  0.0000 
 Px  C     2 -0.1536  0.0212  0.4828  0.0029 -0.0260  0.5198 -0.0142  0.0143 
 Py  C     2  0.2322  0.0697  0.1455 -0.5175 -0.0927  0.0095  0.4452  0.0541 
 Pz  C     2  0.0314 -0.4115  0.0496 -0.0901  0.5363  0.0246  0.0714 -0.3353 
 S   C     3 -0.2642  0.0005  0.0282 -0.0103  0.0001  0.0679  0.0702 -0.0005 
 Px  C     3  0.1916  0.0185 -0.4491  0.0939  0.0287  0.5022  0.1273  0.0143 
 Py  C     3  0.1998  0.0703  0.2339  0.5080  0.0944 -0.1360  0.4261  0.0551 
 Pz  C     3  0.0430 -0.4113  0.0181  0.0939 -0.5362  0.0013  0.0785 -0.3350 
 S   H     4 -0.2116 -0.2200 -0.0640  0.2326  0.3087 -0.0665 -0.1919 -0.2231 
 S   H     5 -0.1386 -0.0131  0.3547 -0.1782  0.0198  0.3232  0.2036 -0.0159 
 S   H     6 -0.2066  0.2335 -0.0402  0.2122 -0.3273 -0.0410 -0.1647  0.2388 
 S   H     7  0.3145  0.2845  0.1261 -0.0001 -0.0008  0.0073 -0.2420 -0.3591 
 S   H     8  0.3143 -0.2841  0.1282 -0.0001 -0.0008  0.0096 -0.2386  0.3610 
 S   H     9 -0.2104  0.2230 -0.0595 -0.2309  0.3111  0.0730 -0.1800  0.2282 
 S   H    10 -0.1384  0.0088  0.3550  0.1779  0.0113 -0.3371  0.1808  0.0074 
 S   H    11 -0.2080 -0.2306 -0.0457 -0.2139 -0.3257  0.0596 -0.1684 -0.2343 

  Virtual Orbitals



    Root No.    11      12      13      14      15      16      17      18  

               4.307   4.659   5.512   5.897   5.948   5.985   6.240   6.674

 S   C     1  0.0009  0.2993  0.0000 -0.1665 -0.0268  0.0003  0.0002 -0.5690 
 Px  C     1 -0.6857 -0.0485 -0.0218  0.0116 -0.0004  0.1141 -0.0223 -0.0279 
 Py  C     1  0.0625 -0.5772 -0.0730  0.1249  0.0171 -0.0096 -0.0798 -0.3184 
 Pz  C     1 -0.0241 -0.1001  0.4337  0.0214  0.0028 -0.0030  0.4694 -0.0551 
 S   C     2  0.1529 -0.1387  0.0004 -0.0040 -0.0007 -0.0110 -0.0008 -0.0337 
 Px  C     2 -0.3838  0.2821 -0.0123 -0.3757 -0.0726 -0.2491  0.0114 -0.0613 
 Py  C     2  0.2600 -0.3446 -0.0468 -0.2318 -0.1016 -0.3801  0.0514  0.1591 
 Pz  C     2  0.0258 -0.0435  0.2910 -0.1223  0.4313 -0.0607 -0.3473  0.0221 
 S   C     3 -0.1538 -0.1377  0.0009 -0.0040 -0.0009  0.0114 -0.0012 -0.0339 
 Px  C     3 -0.4253 -0.3351 -0.0138  0.3250  0.0734 -0.1797  0.0138  0.0881 
 Py  C     3 -0.1862 -0.2849 -0.0498 -0.3160  0.0225  0.4195  0.0644  0.1446 
 Pz  C     3 -0.0515 -0.0638  0.2896  0.0309 -0.4454  0.0613 -0.3444  0.0304 
 S   H     4  0.0267 -0.1337 -0.2649 -0.1315 -0.3906 -0.2602  0.2513  0.0889 
 S   H     5  0.1428  0.0714 -0.0196  0.4604  0.0359  0.4181  0.0253 -0.0162 
 S   H     6  0.0344 -0.1204  0.2836 -0.2014  0.3752 -0.1958 -0.2753  0.0794 
 S   H     7  0.0002  0.1644  0.4068  0.0499  0.0091 -0.0046  0.3521  0.4903 
 S   H     8  0.0009  0.1645 -0.4072  0.0496  0.0093  0.0042 -0.3518  0.4902 
 S   H     9 -0.0291 -0.1297  0.2689 -0.1168 -0.4041  0.2384 -0.2553  0.0878 
 S   H    10 -0.1425  0.0723  0.0088  0.4551  0.0616 -0.4219 -0.0142 -0.0163 
 S   H    11 -0.0334 -0.1237 -0.2789 -0.2104  0.3621  0.2206  0.2715  0.0810 


              NET ATOMIC CHARGES AND DIPOLE CONTRIBUTIONS

  ATOM NO.   TYPE          CHARGE      No. of ELECS.   s-Pop       p-Pop       
    1          C          -0.236353        4.2364     1.05013     3.18622
    2          C          -0.436759        4.4368     1.05190     3.38485
    3          C          -0.436757        4.4368     1.05195     3.38480
    4          H           0.142331        0.8577     0.85767
    5          H           0.138392        0.8616     0.86161
    6          H           0.141754        0.8582     0.85825
    7          H           0.132487        0.8675     0.86751
    8          H           0.132471        0.8675     0.86753
    9          H           0.142200        0.8578     0.85780
   10          H           0.138381        0.8616     0.86162
   11          H           0.141854        0.8581     0.85815
 DIPOLE           X         Y         Z       TOTAL
 POINT-CHG.     0.002     0.022     0.005     0.023
 HYBRID        -0.007    -0.075    -0.013     0.077
 SUM           -0.005    -0.053    -0.008     0.054


          ATOMIC ORBITAL ELECTRON POPULATIONS

     Atom    s        px        py        pz   
    1  C   1.05013   0.97730   1.05460   1.15432
    2  C   1.05190   1.08911   1.12228   1.17346
    3  C   1.05195   1.06958   1.14275   1.17247
    4  H   0.85767
    5  H   0.86161
    6  H   0.85825
    7  H   0.86751
    8  H   0.86753
    9  H   0.85780
   10  H   0.86162
   11  H   0.85815
 *******************************************************************************
 ** Cite this program as: MOPAC2016, Version: 21.298M, James J. P. Stewart,   **
 **                           web-site: HTTP://OpenMOPAC.net.                 **
 *******************************************************************************
 **                                                                           **
 **                                MOPAC2016                                  **
 **                                                                           **
 *******************************************************************************

                              PM7 CALCULATION RESULTS

 *******************************************************************************
 *  CALCULATION DONE:                                Fri Oct 29 13:45:28 2021  *
 *  MOZYME     - USE LOCALIZED M.O.s IN SOLVING THE SCF EQUATIONS
 *  T=         - A TIME OF 172800.0 SECONDS REQUESTED
 *  DUMP=N     - RESTART FILE WRITTEN EVERY 7200.0 SECONDS REQUESTED
 *  EIGEN      - CONVERT LMO's INTO EIGENVECTORS
 *  ALLVEC     - PRINT ALL EIGENVECTORS
 *******************************************************************************
ALLVEC MOZYME EIGEN
 Propane

   ATOM   CHEMICAL          X               Y               Z
  NUMBER   SYMBOL      (ANGSTROMS)     (ANGSTROMS)     (ANGSTROMS)
 
     1       C         -2.47938629  *   1.94891579  *   0.11190868  *
     2       C         -1.29827276  *   0.98387702  *   0.00729518  *
     3       C         -3.81010175  *   1.21964142  *  -0.07647847  *
     4       H         -1.38347707  *   0.16741450  *   0.73288952  *
     5       H         -0.34844936  *   1.49531165  *   0.19480817  *
     6       H         -1.23847661  *   0.53154082  *  -0.98851859  *
     7       H         -2.37857497  *   2.75130968  *  -0.64360323  *
     8       H         -2.46534850  *   2.45775798  *   1.09469749  *
     9       H         -3.85388474  *   0.71068126  *  -1.04535583  *
    10       H         -4.65461095  *   1.91488898  *  -0.02947366  *
    11       H         -3.96289721  *   0.46065065  *   0.69868957  *
 


          CARTESIAN COORDINATES 

    NO.       ATOM           X           Y           Z

     1         C         -2.4794      1.9489      0.1119
     2         C         -1.2983      0.9839      0.0073
     3         C         -3.8101      1.2196     -0.0765
     4         H         -1.3835      0.1674      0.7329
     5         H         -0.3484      1.4953      0.1948
     6         H         -1.2385      0.5315     -0.9885
     7         H         -2.3786      2.7513     -0.6436
     8         H         -2.4653      2.4578      1.0947
     9         H         -3.8539      0.7107     -1.0454
    10         H         -4.6546      1.9149     -0.0295
    11         H         -3.9629      0.4607      0.6987

 General Reference for PM7:
 "Optimization of Parameters for Semiempirical Methods VI: More Modifications to the 
 NDDO Approximations and Re-optimization of Parameters", J. J. P. Stewart, J. Mol. Mod., 1:32, 19 (2013)
 https://link.springer.com/article/10.1007/s00894-012-1667-x

           Empirical Formula: C3 H8  =    11 atoms



      MOLECULAR POINT GROUP   :   C2v 

          NO CHARGES FOUND.

          COMPUTED CHARGE ON SYSTEM: +0

          Geometry optimization using EF

     GRADIENT =  0.83836 IS LESS THAN CUTOFF =  1.00000



 -------------------------------------------------------------------------------
 ALLVEC MOZYME EIGEN
 Propane



     GRADIENTS WERE INITIALLY ACCEPTABLY SMALL                
     SCF FIELD WAS ACHIEVED                                   


                              PM7 CALCULATION
                                                       MOPAC2016 (Version: 21.298M)
                                                       Fri Oct 29 13:45:28 2021




          FINAL HEAT OF FORMATION =        -23.07582 KCAL/MOL =     -96.54924 KJ/MOL



          GRADIENT NORM           =          0.83836          =       0.25278 PER ATOM
          NO. OF FILLED LEVELS    =         10
          MOLECULAR WEIGHT        =         44.0962         POINT GROUP:  C2v 

          MOLECULAR DIMENSIONS (Angstroms)

            Atom       Atom       Distance
            H    10    H     5     4.33236
            H     7    H    11     2.81279
            H     8    H     6     2.76473


          SCF CALCULATIONS        =          1
 
          WALL-CLOCK TIME         =          0.043 SECONDS
          COMPUTATION TIME        =          0.042 SECONDS




   ATOM   CHEMICAL          X               Y               Z
  NUMBER   SYMBOL      (ANGSTROMS)     (ANGSTROMS)     (ANGSTROMS)
 
     1       C         -2.47938629  *   1.94891579  *   0.11190868  *
     2       C         -1.29827276  *   0.98387702  *   0.00729518  *
     3       C         -3.81010175  *   1.21964142  *  -0.07647847  *
     4       H         -1.38347707  *   0.16741450  *   0.73288952  *
     5       H         -0.34844936  *   1.49531165  *   0.19480817  *
     6       H         -1.23847661  *   0.53154082  *  -0.98851859  *
     7       H         -2.37857497  *   2.75130968  *  -0.64360323  *
     8       H         -2.46534850  *   2.45775798  *   1.09469749  *
     9       H         -3.85388474  *   0.71068126  *  -1.04535583  *
    10       H         -4.65461095  *   1.91488898  *  -0.02947366  *
    11       H         -3.96289721  *   0.46065065  *   0.69868957  *

                             CARTESIAN COORDINATES

   1    C       -2.479386294     1.948915792     0.111908676
   2    C       -1.298272763     0.983877020     0.007295183
   3    C       -3.810101751     1.219641420    -0.076478473
   4    H       -1.383477073     0.167414504     0.732889522
   5    H       -0.348449360     1.495311647     0.194808165
   6    H       -1.238476615     0.531540822    -0.988518590
   7    H       -2.378574965     2.751309683    -0.643603231
   8    H       -2.465348500     2.457757976     1.094697491
   9    H       -3.853884743     0.710681255    -1.045355833
  10    H       -4.654610952     1.914888983    -0.029473663
  11    H       -3.962897209     0.460650646     0.698689570


           Empirical Formula: C3 H8  =    11 atoms


  Occupied Orbitals



    Root No.     1       2       3       4       5       6       7       8  

             -28.150 -23.793 -20.119 -15.810 -15.091 -13.909 -13.152 -12.006

 S   C     1 -0.5411 -0.0000  0.4718 -0.0003 -0.0963 -0.0000  0.0003 -0.0006 
 Px  C     1  0.0074 -0.2924  0.0228  0.0259  0.0362 -0.4298 -0.0036 -0.4598 
 Py  C     1  0.0841  0.0275  0.2594  0.0893  0.4165  0.0399 -0.0012  0.0609 
 Pz  C     1  0.0145 -0.0096  0.0448 -0.5239  0.0739 -0.0143 -0.0004 -0.0113 
 S   C     2 -0.4302 -0.5106 -0.2641  0.0001  0.0282  0.0103  0.0004 -0.0727 
 Px  C     2  0.0993 -0.0792 -0.1536  0.0212  0.4828  0.0029 -0.0260  0.5198 
 Py  C     2 -0.0598  0.0034  0.2322  0.0697  0.1455 -0.5175 -0.0927  0.0095 
 Pz  C     2 -0.0052 -0.0031  0.0314 -0.4115  0.0496 -0.0901  0.5363  0.0246 
 S   C     3 -0.4302  0.5106 -0.2642  0.0005  0.0282 -0.0103  0.0001  0.0679 
 Px  C     3 -0.1081 -0.0785  0.1916  0.0185 -0.4491  0.0939  0.0287  0.5022 
 Py  C     3 -0.0403  0.0113  0.1998  0.0703  0.2339  0.5080  0.0944 -0.1360 
 Pz  C     3 -0.0122 -0.0019  0.0430 -0.4113  0.0181  0.0939 -0.5362  0.0013 
 S   H     4 -0.1880 -0.2362 -0.2116 -0.2200 -0.0640  0.2326  0.3087 -0.0665 
 S   H     5 -0.1749 -0.2770 -0.1386 -0.0131  0.3547 -0.1782  0.0198  0.3232 
 S   H     6 -0.1869 -0.2394 -0.2066  0.2335 -0.0402  0.2122 -0.3273 -0.0410 
 S   H     7 -0.2247 -0.0001  0.3145  0.2845  0.1261 -0.0001 -0.0008  0.0073 
 S   H     8 -0.2247  0.0002  0.3143 -0.2841  0.1282 -0.0001 -0.0008  0.0096 
 S   H     9 -0.1876  0.2371 -0.2104  0.2230 -0.0595 -0.2309  0.3111  0.0730 
 S   H    10 -0.1750  0.2770 -0.1384  0.0088  0.3550  0.1779  0.0113 -0.3371 
 S   H    11 -0.1872  0.2385 -0.2080 -0.2306 -0.0457 -0.2139 -0.3257  0.0596 


    Root No.     9      10  

             -11.967 -11.386

 S   C     1  0.0185 -0.0000 
 Px  C     1 -0.0610 -0.0250 
 Py  C     1 -0.5075 -0.0887 
 Pz  C     1 -0.0862  0.5358 
 S   C     2  0.0652  0.0000 
 Px  C     2 -0.0142  0.0143 
 Py  C     2  0.4452  0.0541 
 Pz  C     2  0.0714 -0.3353 
 S   C     3  0.0702 -0.0005 
 Px  C     3  0.1273  0.0143 
 Py  C     3  0.4261  0.0551 
 Pz  C     3  0.0785 -0.3350 
 S   H     4 -0.1919 -0.2231 
 S   H     5  0.2036 -0.0159 
 S   H     6 -0.1647  0.2388 
 S   H     7 -0.2420 -0.3591 
 S   H     8 -0.2386  0.3610 
 S   H     9 -0.1800  0.2282 
 S   H    10  0.1808  0.0074 
 S   H    11 -0.1684 -0.2343 

  Virtual Orbitals



    Root No.    11      12      13      14      15      16      17      18  

               4.307   4.659   5.512   5.897   5.948   5.985   6.240   6.674

 S   C     1  0.0009  0.2993  0.0000 -0.1665 -0.0268  0.0003  0.0002 -0.5690 
 Px  C     1 -0.6857 -0.0485 -0.0218  0.0116 -0.0004  0.1141 -0.0223 -0.0279 
 Py  C     1  0.0625 -0.5772 -0.0730  0.1249  0.0171 -0.0096 -0.0798 -0.3184 
 Pz  C     1 -0.0241 -0.1001  0.4337  0.0214  0.0028 -0.0030  0.4694 -0.0551 
 S   C     2  0.1529 -0.1387  0.0004 -0.0040 -0.0007 -0.0110 -0.0008 -0.0337 
 Px  C     2 -0.3838  0.2821 -0.0123 -0.3757 -0.0726 -0.2491  0.0114 -0.0613 
 Py  C     2  0.2600 -0.3446 -0.0468 -0.2318 -0.1016 -0.3801  0.0514  0.1591 
 Pz  C     2  0.0258 -0.0435  0.2910 -0.1223  0.4313 -0.0607 -0.3473  0.0221 
 S   C     3 -0.1538 -0.1377  0.0009 -0.0040 -0.0009  0.0114 -0.0012 -0.0339 
 Px  C     3 -0.4253 -0.3351 -0.0138  0.3250  0.0734 -0.1797  0.0138  0.0881 
 Py  C     3 -0.1862 -0.2849 -0.0498 -0.3160  0.0225  0.4195  0.0644  0.1446 
 Pz  C     3 -0.0515 -0.0638  0.2896  0.0309 -0.4454  0.0613 -0.3444  0.0304 
 S   H     4  0.0267 -0.1337 -0.2649 -0.1315 -0.3906 -0.2602  0.2513  0.0889 
 S   H     5  0.1428  0.0714 -0.0196  0.4604  0.0359  0.4181  0.0253 -0.0162 
 S   H     6  0.0344 -0.1204  0.2836 -0.2014  0.3752 -0.1958 -0.2753  0.0794 
 S   H     7  0.0002  0.1644  0.4068  0.0499  0.0091 -0.0046  0.3521  0.4903 
 S   H     8  0.0009  0.1645 -0.4072  0.0496  0.0093  0.0042 -0.3518  0.4902 
 S   H     9 -0.0291 -0.1297  0.2689 -0.1168 -0.4041  0.2384 -0.2553  0.0878 
 S   H    10 -0.1425  0.0723  0.0088  0.4551  0.0616 -0.4219 -0.0142 -0.0163 
 S   H    11 -0.0334 -0.1237 -0.2789 -0.2104  0.3621  0.2206  0.2715  0.0810 


    Root No.    19      20  

               7.065   7.133

 S   C     1 -0.1821 -0.0002 
 Px  C     1  0.0068  0.1545 
 Py  C     1  0.0798 -0.0145 
 Pz  C     1  0.0142  0.0052 
 S   C     2  0.4689 -0.4586 
 Px  C     2  0.0555 -0.1139 
 Py  C     2 -0.0888  0.0772 
 Pz  C     2 -0.0131  0.0073 
 S   C     3  0.4681  0.4593 
 Px  C     3 -0.0698 -0.1255 
 Py  C     3 -0.0771 -0.0548 
 Pz  C     3 -0.0174 -0.0156 
 S   H     4 -0.2948  0.2947 
 S   H     5 -0.2642  0.2907 
 S   H     6 -0.2940  0.2942 
 S   H     7  0.0826  0.0001 
 S   H     8  0.0821  0.0002 
 S   H     9 -0.2956 -0.2951 
 S   H    10 -0.2636 -0.2912 
 S   H    11 -0.2923 -0.2948 


              NET ATOMIC CHARGES AND DIPOLE CONTRIBUTIONS

  ATOM NO.   TYPE          CHARGE      No. of ELECS.   s-Pop       p-Pop       
    1          C          -0.236353        4.2364     1.05013     3.18622
    2          C          -0.436759        4.4368     1.05190     3.38485
    3          C          -0.436757        4.4368     1.05195     3.38480
    4          H           0.142331        0.8577     0.85767
    5          H           0.138392        0.8616     0.86161
    6          H           0.141754        0.8582     0.85825
    7          H           0.132487        0.8675     0.86751
    8          H           0.132471        0.8675     0.86753
    9          H           0.142200        0.8578     0.85780
   10          H           0.138381        0.8616     0.86162
   11          H           0.141854        0.8581     0.85815
 DIPOLE           X         Y         Z       TOTAL
 POINT-CHG.     0.002     0.022     0.005     0.023
 HYBRID        -0.007    -0.075    -0.013     0.077
 SUM           -0.005    -0.053    -0.008     0.054


          ATOMIC ORBITAL ELECTRON POPULATIONS

     Atom    s        px        py        pz   
    1  C   1.05013   0.97730   1.05460   1.15432
    2  C   1.05190   1.08911   1.12228   1.17346
    3  C   1.05195   1.06958   1.14275   1.17247
    4  H   0.85767
    5  H   0.86161
    6  H   0.85825
    7  H   0.86751
    8  H   0.86753
    9  H   0.85780
   10  H   0.86162
   11  H   0.85815
 *******************************************************************************
 ** Cite this program as: MOPAC2016, Version: 21.298M, James J. P. Stewart,   **
 **                           web-site: HTTP://OpenMOPAC.net.                 **
 *******************************************************************************
 **                                                                           **
 **                                MOPAC2016                                  **
 **                                                                           **
 *******************************************************************************

                              PM7 CALCULATION RESULTS

 *******************************************************************************
 *  CALCULATION DONE:                                Fri Oct 29 13:45:28 2021  *
 *  MOZYME     - USE LOCALIZED M.O.s IN SOLVING THE SCF EQUATIONS
 *  T=         - A TIME OF 172800.0 SECONDS REQUESTED
 *  DUMP=N     - RESTART FILE WRITTEN EVERY 7200.0 SECONDS REQUESTED
 *  VECTORS    - FINAL MOLECULAR ORBITALS TO BE PRINTED
 *  EIGEN      - CONVERT LMO's INTO EIGENVECTORS
 *******************************************************************************
VECTORS=(2,2) MOZYME EIGEN
 Propane

   ATOM   CHEMICAL          X               Y               Z
  NUMBER   SYMBOL      (ANGSTROMS)     (ANGSTROMS)     (ANGSTROMS)
 
     1       C         -2.47938629  *   1.94891579  *   0.11190868  *
     2       C         -1.29827276  *   0.98387702  *   0.00729518  *
     3       C         -3.81010175  *   1.21964142  *  -0.07647847  *
     4       H         -1.38347707  *   0.16741450  *   0.73288952  *
     5       H         -0.34844936  *   1.49531165  *   0.19480817  *
     6       H         -1.23847661  *   0.53154082  *  -0.98851859  *
     7       H         -2.37857497  *   2.75130968  *  -0.64360323  *
     8       H         -2.46534850  *   2.45775798  *   1.09469749  *
     9       H         -3.85388474  *   0.71068126  *  -1.04535583  *
    10       H         -4.65461095  *   1.91488898  *  -0.02947366  *
    11       H         -3.96289721  *   0.46065065  *   0.69868957  *
 


          CARTESIAN COORDINATES 

    NO.       ATOM           X           Y           Z

     1         C         -2.4794      1.9489      0.1119
     2         C         -1.2983      0.9839      0.0073
     3         C         -3.8101      1.2196     -0.0765
     4         H         -1.3835      0.1674      0.7329
     5         H         -0.3484      1.4953      0.1948
     6         H         -1.2385      0.5315     -0.9885
     7         H         -2.3786      2.7513     -0.6436
     8         H         -2.4653      2.4578      1.0947
     9         H         -3.8539      0.7107     -1.0454
    10         H         -4.6546      1.9149     -0.0295
    11         H         -3.9629      0.4607      0.6987

 General Reference for PM7:
 "Optimization of Parameters for Semiempirical Methods VI: More Modifications to the 
 NDDO Approximations and Re-optimization of Parameters", J. J. P. Stewart, J. Mol. Mod., 1:32, 19 (2013)
 https://link.springer.com/article/10.1007/s00894-012-1667-x

           Empirical Formula: C3 H8  =    11 atoms



      MOLECULAR POINT GROUP   :   C2v 

          NO CHARGES FOUND.

          COMPUTED CHARGE ON SYSTEM: +0

          Geometry optimization using EF

     GRADIENT =  0.83836 IS LESS THAN CUTOFF =  1.00000



 -------------------------------------------------------------------------------
 VECTORS=(2,2) MOZYME EIGEN
 Propane



     GRADIENTS WERE INITIALLY ACCEPTABLY SMALL                
     SCF FIELD WAS ACHIEVED                                   


                              PM7 CALCULATION
                                                       MOPAC2016 (Version: 21.298M)
                                                       Fri Oct 29 13:45:28 2021




          FINAL HEAT OF FORMATION =        -23.07582 KCAL/MOL =     -96.54924 KJ/MOL



          GRADIENT NORM           =          0.83836          =       0.25278 PER ATOM
          NO. OF FILLED LEVELS    =         10
          MOLECULAR WEIGHT        =         44.0962         POINT GROUP:  C2v 

          MOLECULAR DIMENSIONS (Angstroms)

            Atom       Atom       Distance
            H    10    H     5     4.33236
            H     7    H    11     2.81279
            H     8    H     6     2.76473


          SCF CALCULATIONS        =          1
 
          WALL-CLOCK TIME         =          0.051 SECONDS
          COMPUTATION TIME        =          0.052 SECONDS




   ATOM   CHEMICAL          X               Y               Z
  NUMBER   SYMBOL      (ANGSTROMS)     (ANGSTROMS)     (ANGSTROMS)
 
     1       C         -2.47938629  *   1.94891579  *   0.11190868  *
     2       C         -1.29827276  *   0.98387702  *   0.00729518  *
     3       C         -3.81010175  *   1.21964142  *  -0.07647847  *
     4       H         -1.38347707  *   0.16741450  *   0.73288952  *
     5       H         -0.34844936  *   1.49531165  *   0.19480817  *
     6       H         -1.23847661  *   0.53154082  *  -0.98851859  *
     7       H         -2.37857497  *   2.75130968  *  -0.64360323  *
     8       H         -2.46534850  *   2.45775798  *   1.09469749  *
     9       H         -3.85388474  *   0.71068126  *  -1.04535583  *
    10       H         -4.65461095  *   1.91488898  *  -0.02947366  *
    11       H         -3.96289721  *   0.46065065  *   0.69868957  *

                             CARTESIAN COORDINATES

   1    C       -2.479386294     1.948915792     0.111908676
   2    C       -1.298272763     0.983877020     0.007295183
   3    C       -3.810101751     1.219641420    -0.076478473
   4    H       -1.383477073     0.167414504     0.732889522
   5    H       -0.348449360     1.495311647     0.194808165
   6    H       -1.238476615     0.531540822    -0.988518590
   7    H       -2.378574965     2.751309683    -0.643603231
   8    H       -2.465348500     2.457757976     1.094697491
   9    H       -3.853884743     0.710681255    -1.045355833
  10    H       -4.654610952     1.914888983    -0.029473663
  11    H       -3.962897209     0.460650646     0.698689570


           Empirical Formula: C3 H8  =    11 atoms


  Occupied Orbitals



    Root No.     9      10  

             -11.967 -11.386

 S   C     1  0.0185 -0.0000 
 Px  C     1 -0.0610 -0.0250 
 Py  C     1 -0.5075 -0.0887 
 Pz  C     1 -0.0862  0.5358 
 S   C     2  0.0652  0.0000 
 Px  C     2 -0.0142  0.0143 
 Py  C     2  0.4452  0.0541 
 Pz  C     2  0.0714 -0.3353 
 S   C     3  0.0702 -0.0005 
 Px  C     3  0.1273  0.0143 
 Py  C     3  0.4261  0.0551 
 Pz  C     3  0.0785 -0.3350 
 S   H     4 -0.1919 -0.2231 
 S   H     5  0.2036 -0.0159 
 S   H     6 -0.1647  0.2388 
 S   H     7 -0.2420 -0.3591 
 S   H     8 -0.2386  0.3610 
 S   H     9 -0.1800  0.2282 
 S   H    10  0.1808  0.0074 
 S   H    11 -0.1684 -0.2343 

  Virtual Orbitals



    Root No.    11      12  

               4.307   4.659

 S   C     1  0.0009  0.2993 
 Px  C     1 -0.6857 -0.0485 
 Py  C     1  0.0625 -0.5772 
 Pz  C     1 -0.0241 -0.1001 
 S   C     2  0.1529 -0.1387 
 Px  C     2 -0.3838  0.2821 
 Py  C     2  0.2600 -0.3446 
 Pz  C     2  0.0258 -0.0435 
 S   C     3 -0.1538 -0.1377 
 Px  C     3 -0.4253 -0.3351 
 Py  C     3 -0.1862 -0.2849 
 Pz  C     3 -0.0515 -0.0638 
 S   H     4  0.0267 -0.1337 
 S   H     5  0.1428  0.0714 
 S   H     6  0.0344 -0.1204 
 S   H     7  0.0002  0.1644 
 S   H     8  0.0009  0.1645 
 S   H     9 -0.0291 -0.1297 
 S   H    10 -0.1425  0.0723 
 S   H    11 -0.0334 -0.1237 


              NET ATOMIC CHARGES AND DIPOLE CONTRIBUTIONS

  ATOM NO.   TYPE          CHARGE      No. of ELECS.   s-Pop       p-Pop       
    1          C          -0.236353        4.2364     1.05013     3.18622
    2          C          -0.436759        4.4368     1.05190     3.38485
    3          C          -0.436757        4.4368     1.05195     3.38480
    4          H           0.142331        0.8577     0.85767
    5          H           0.138392        0.8616     0.86161
    6          H           0.141754        0.8582     0.85825
    7          H           0.132487        0.8675     0.86751
    8          H           0.132471        0.8675     0.86753
    9          H           0.142200        0.8578     0.85780
   10          H           0.138381        0.8616     0.86162
   11          H           0.141854        0.8581     0.85815
 DIPOLE           X         Y         Z       TOTAL
 POINT-CHG.     0.002     0.022     0.005     0.023
 HYBRID        -0.007    -0.075    -0.013     0.077
 SUM           -0.005    -0.053    -0.008     0.054


          ATOMIC ORBITAL ELECTRON POPULATIONS

     Atom    s        px        py        pz   
    1  C   1.05013   0.97730   1.05460   1.15432
    2  C   1.05190   1.08911   1.12228   1.17346
    3  C   1.05195   1.06958   1.14275   1.17247
    4  H   0.85767
    5  H   0.86161
    6  H   0.85825
    7  H   0.86751
    8  H   0.86753
    9  H   0.85780
   10  H   0.86162
   11  H   0.85815
 *******************************************************************************
 ** Cite this program as: MOPAC2016, Version: 21.298M, James J. P. Stewart,   **
 **                           web-site: HTTP://OpenMOPAC.net.                 **
 *******************************************************************************
 **                                                                           **
 **                                MOPAC2016                                  **
 **                                                                           **
 *******************************************************************************

                              PM7 CALCULATION RESULTS

 *******************************************************************************
 *  CALCULATION DONE:                                Fri Oct 29 13:45:28 2021  *
 *  MOZYME     - USE LOCALIZED M.O.s IN SOLVING THE SCF EQUATIONS
 *  T=         - A TIME OF 172800.0 SECONDS REQUESTED
 *  DUMP=N     - RESTART FILE WRITTEN EVERY 7200.0 SECONDS REQUESTED
 *  AUX        - OUTPUT AUXILIARY INFORMATION
 *******************************************************************************
AUX MOZYME
 Propane

   ATOM   CHEMICAL          X               Y               Z
  NUMBER   SYMBOL      (ANGSTROMS)     (ANGSTROMS)     (ANGSTROMS)
 
     1       C         -2.47938629  *   1.94891579  *   0.11190868  *
     2       C         -1.29827276  *   0.98387702  *   0.00729518  *
     3       C         -3.81010175  *   1.21964142  *  -0.07647847  *
     4       H         -1.38347707  *   0.16741450  *   0.73288952  *
     5       H         -0.34844936  *   1.49531165  *   0.19480817  *
     6       H         -1.23847661  *   0.53154082  *  -0.98851859  *
     7       H         -2.37857497  *   2.75130968  *  -0.64360323  *
     8       H         -2.46534850  *   2.45775798  *   1.09469749  *
     9       H         -3.85388474  *   0.71068126  *  -1.04535583  *
    10       H         -4.65461095  *   1.91488898  *  -0.02947366  *
    11       H         -3.96289721  *   0.46065065  *   0.69868957  *
 


          CARTESIAN COORDINATES 

    NO.       ATOM           X           Y           Z

     1         C         -2.4794      1.9489      0.1119
     2         C         -1.2983      0.9839      0.0073
     3         C         -3.8101      1.2196     -0.0765
     4         H         -1.3835      0.1674      0.7329
     5         H         -0.3484      1.4953      0.1948
     6         H         -1.2385      0.5315     -0.9885
     7         H         -2.3786      2.7513     -0.6436
     8         H         -2.4653      2.4578      1.0947
     9         H         -3.8539      0.7107     -1.0454
    10         H         -4.6546      1.9149     -0.0295
    11         H         -3.9629      0.4607      0.6987

 General Reference for PM7:
 "Optimization of Parameters for Semiempirical Methods VI: More Modifications to the 
 NDDO Approximations and Re-optimization of Parameters", J. J. P. Stewart, J. Mol. Mod., 1:32, 19 (2013)
 https://link.springer.com/article/10.1007/s00894-012-1667-x

           Empirical Formula: C3 H8  =    11 atoms



      MOLECULAR POINT GROUP   :   C2v 

          NO CHARGES FOUND.

          COMPUTED CHARGE ON SYSTEM: +0

          Geometry optimization using EF

     GRADIENT =  0.83836 IS LESS THAN CUTOFF =  1.00000



 -------------------------------------------------------------------------------
 AUX MOZYME
 Propane



     GRADIENTS WERE INITIALLY ACCEPTABLY SMALL                
     SCF FIELD WAS ACHIEVED                                   


                              PM7 CALCULATION
                                                       MOPAC2016 (Version: 21.298M)
                                                       Fri Oct 29 13:45:28 2021




          FINAL HEAT OF FORMATION =        -23.07582 KCAL/MOL =     -96.54924 KJ/MOL



          GRADIENT NORM           =          0.83836          =       0.25278 PER ATOM
          NO. OF FILLED LEVELS    =         10
          MOLECULAR WEIGHT        =         44.0962         POINT GROUP:  C2v 

          MOLECULAR DIMENSIONS (Angstroms)

            Atom       Atom       Distance
            H    10    H     5     4.33236
            H     7    H    11     2.81279
            H     8    H     6     2.76473


          SCF CALCULATIONS        =          1
 
          WALL-CLOCK TIME         =          0.062 SECONDS
          COMPUTATION TIME        =          0.063 SECONDS




   ATOM   CHEMICAL          X               Y               Z
  NUMBER   SYMBOL      (ANGSTROMS)     (ANGSTROMS)     (ANGSTROMS)
 
     1       C         -2.47938629  *   1.94891579  *   0.11190868  *
     2       C         -1.29827276  *   0.98387702  *   0.00729518  *
     3       C         -3.81010175  *   1.21964142  *  -0.07647847  *
     4       H         -1.38347707  *   0.16741450  *   0.73288952  *
     5       H         -0.34844936  *   1.49531165  *   0.19480817  *
     6       H         -1.23847661  *   0.53154082  *  -0.98851859  *
     7       H         -2.37857497  *   2.75130968  *  -0.64360323  *
     8       H         -2.46534850  *   2.45775798  *   1.09469749  *
     9       H         -3.85388474  *   0.71068126  *  -1.04535583  *
    10       H         -4.65461095  *   1.91488898  *  -0.02947366  *
    11       H         -3.96289721  *   0.46065065  *   0.69868957  *

                             CARTESIAN COORDINATES

   1    C       -2.479386294     1.948915792     0.111908676
   2    C       -1.298272763     0.983877020     0.007295183
   3    C       -3.810101751     1.219641420    -0.076478473
   4    H       -1.383477073     0.167414504     0.732889522
   5    H       -0.348449360     1.495311647     0.194808165
   6    H       -1.238476615     0.531540822    -0.988518590
   7    H       -2.378574965     2.751309683    -0.643603231
   8    H       -2.465348500     2.457757976     1.094697491
   9    H       -3.853884743     0.710681255    -1.045355833
  10    H       -4.654610952     1.914888983    -0.029473663
  11    H       -3.962897209     0.460650646     0.698689570


           Empirical Formula: C3 H8  =    11 atoms



              NET ATOMIC CHARGES AND DIPOLE CONTRIBUTIONS

  ATOM NO.   TYPE          CHARGE      No. of ELECS.   s-Pop       p-Pop       
    1          C          -0.236353        4.2364     1.05013     3.18622
    2          C          -0.436759        4.4368     1.05190     3.38485
    3          C          -0.436757        4.4368     1.05195     3.38480
    4          H           0.142331        0.8577     0.85767
    5          H           0.138392        0.8616     0.86161
    6          H           0.141754        0.8582     0.85825
    7          H           0.132487        0.8675     0.86751
    8          H           0.132471        0.8675     0.86753
    9          H           0.142200        0.8578     0.85780
   10          H           0.138381        0.8616     0.86162
   11          H           0.141854        0.8581     0.85815
 DIPOLE           X         Y         Z       TOTAL
 POINT-CHG.     0.002     0.022     0.005     0.023
 HYBRID        -0.007    -0.075    -0.013     0.077
 SUM           -0.005    -0.053    -0.008     0.054


          ATOMIC ORBITAL ELECTRON POPULATIONS

     Atom    s        px        py        pz   
    1  C   1.05013   0.97730   1.05460   1.15432
    2  C   1.05190   1.08911   1.12228   1.17346
    3  C   1.05195   1.06958   1.14275   1.17247
    4  H   0.85767
    5  H   0.86161
    6  H   0.85825
    7  H   0.86751
    8  H   0.86753
    9  H   0.85780
   10  H   0.86162
   11  H   0.85815
 *******************************************************************************
 ** Cite this program as: MOPAC2016, Version: 21.298M, James J. P. Stewart,   **
 **                           web-site: HTTP://OpenMOPAC.net.                 **
 *******************************************************************************
 **                                                                           **
 **                                MOPAC2016                                  **
 **                                                                           **
 *******************************************************************************

                              PM7 CALCULATION RESULTS

 *******************************************************************************
 *  CALCULATION DONE:                                Fri Oct 29 13:45:28 2021  *
 *  MOZYME     - USE LOCALIZED M.O.s IN SOLVING THE SCF EQUATIONS
 *  T=         - A TIME OF 172800.0 SECONDS REQUESTED
 *  DUMP=N     - RESTART FILE WRITTEN EVERY 7200.0 SECONDS REQUESTED
 *  AUX        - OUTPUT AUXILIARY INFORMATION
 *  EIGEN      - CONVERT LMO's INTO EIGENVECTORS
 *******************************************************************************
AUX MOZYME EIGEN
 Propane

   ATOM   CHEMICAL          X               Y               Z
  NUMBER   SYMBOL      (ANGSTROMS)     (ANGSTROMS)     (ANGSTROMS)
 
     1       C         -2.47938629  *   1.94891579  *   0.11190868  *
     2       C         -1.29827276  *   0.98387702  *   0.00729518  *
     3       C         -3.81010175  *   1.21964142  *  -0.07647847  *
     4       H         -1.38347707  *   0.16741450  *   0.73288952  *
     5       H         -0.34844936  *   1.49531165  *   0.19480817  *
     6       H         -1.23847661  *   0.53154082  *  -0.98851859  *
     7       H         -2.37857497  *   2.75130968  *  -0.64360323  *
     8       H         -2.46534850  *   2.45775798  *   1.09469749  *
     9       H         -3.85388474  *   0.71068126  *  -1.04535583  *
    10       H         -4.65461095  *   1.91488898  *  -0.02947366  *
    11       H         -3.96289721  *   0.46065065  *   0.69868957  *
 


          CARTESIAN COORDINATES 

    NO.       ATOM           X           Y           Z

     1         C         -2.4794      1.9489      0.1119
     2         C         -1.2983      0.9839      0.0073
     3         C         -3.8101      1.2196     -0.0765
     4         H         -1.3835      0.1674      0.7329
     5         H         -0.3484      1.4953      0.1948
     6         H         -1.2385      0.5315     -0.9885
     7         H         -2.3786      2.7513     -0.6436
     8         H         -2.4653      2.4578      1.0947
     9         H         -3.8539      0.7107     -1.0454
    10         H         -4.6546      1.9149     -0.0295
    11         H         -3.9629      0.4607      0.6987

 General Reference for PM7:
 "Optimization of Parameters for Semiempirical Methods VI: More Modifications to the 
 NDDO Approximations and Re-optimization of Parameters", J. J. P. Stewart, J. Mol. Mod., 1:32, 19 (2013)
 https://link.springer.com/article/10.1007/s00894-012-1667-x

           Empirical Formula: C3 H8  =    11 atoms



      MOLECULAR POINT GROUP   :   C2v 

          NO CHARGES FOUND.

          COMPUTED CHARGE ON SYSTEM: +0

          Geometry optimization using EF

     GRADIENT =  0.83836 IS LESS THAN CUTOFF =  1.00000



 -------------------------------------------------------------------------------
 AUX MOZYME EIGEN
 Propane



     GRADIENTS WERE INITIALLY ACCEPTABLY SMALL                
     SCF FIELD WAS ACHIEVED                                   


                              PM7 CALCULATION
                                                       MOPAC2016 (Version: 21.298M)
                                                       Fri Oct 29 13:45:28 2021




          FINAL HEAT OF FORMATION =        -23.07582 KCAL/MOL =     -96.54924 KJ/MOL



          GRADIENT NORM           =          0.83836          =       0.25278 PER ATOM
          NO. OF FILLED LEVELS    =         10
          MOLECULAR WEIGHT        =         44.0962         POINT GROUP:  C2v 

          MOLECULAR DIMENSIONS (Angstroms)

            Atom       Atom       Distance
            H    10    H     5     4.33236
            H     7    H    11     2.81279
            H     8    H     6     2.76473


          SCF CALCULATIONS        =          1
 
          WALL-CLOCK TIME         =          0.074 SECONDS
          COMPUTATION TIME        =          0.074 SECONDS




   ATOM   CHEMICAL          X               Y               Z
  NUMBER   SYMBOL      (ANGSTROMS)     (ANGSTROMS)     (ANGSTROMS)
 
     1       C         -2.47938629  *   1.94891579  *   0.11190868  *
     2       C         -1.29827276  *   0.98387702  *   0.00729518  *
     3       C         -3.81010175  *   1.21964142  *  -0.07647847  *
     4       H         -1.38347707  *   0.16741450  *   0.73288952  *
     5       H         -0.34844936  *   1.49531165  *   0.19480817  *
     6       H         -1.23847661  *   0.53154082  *  -0.98851859  *
     7       H         -2.37857497  *   2.75130968  *  -0.64360323  *
     8       H         -2.46534850  *   2.45775798  *   1.09469749  *
     9       H         -3.85388474  *   0.71068126  *  -1.04535583  *
    10       H         -4.65461095  *   1.91488898  *  -0.02947366  *
    11       H         -3.96289721  *   0.46065065  *   0.69868957  *

                             CARTESIAN COORDINATES

   1    C       -2.479386294     1.948915792     0.111908676
   2    C       -1.298272763     0.983877020     0.007295183
   3    C       -3.810101751     1.219641420    -0.076478473
   4    H       -1.383477073     0.167414504     0.732889522
   5    H       -0.348449360     1.495311647     0.194808165
   6    H       -1.238476615     0.531540822    -0.988518590
   7    H       -2.378574965     2.751309683    -0.643603231
   8    H       -2.465348500     2.457757976     1.094697491
   9    H       -3.853884743     0.710681255    -1.045355833
  10    H       -4.654610952     1.914888983    -0.029473663
  11    H       -3.962897209     0.460650646     0.698689570


           Empirical Formula: C3 H8  =    11 atoms



              NET ATOMIC CHARGES AND DIPOLE CONTRIBUTIONS

  ATOM NO.   TYPE          CHARGE      No. of ELECS.   s-Pop       p-Pop       
    1          C          -0.236353        4.2364     1.05013     3.18622
    2          C          -0.436759        4.4368     1.05190     3.38485
    3          C          -0.436757        4.4368     1.05195     3.38480
    4          H           0.142331        0.8577     0.85767
    5          H           0.138392        0.8616     0.86161
    6          H           0.141754        0.8582     0.85825
    7          H           0.132487        0.8675     0.86751
    8          H           0.132471        0.8675     0.86753
    9          H           0.142200        0.8578     0.85780
   10          H           0.138381        0.8616     0.86162
   11          H           0.141854        0.8581     0.85815
 DIPOLE           X         Y         Z       TOTAL
 POINT-CHG.     0.002     0.022     0.005     0.023
 HYBRID        -0.007    -0.075    -0.013     0.077
 SUM           -0.005    -0.053    -0.008     0.054


          ATOMIC ORBITAL ELECTRON POPULATIONS

     Atom    s        px        py        pz   
    1  C   1.05013   0.97730   1.05460   1.15432
    2  C   1.05190   1.08911   1.12228   1.17346
    3  C   1.05195   1.06958   1.14275   1.17247
    4  H   0.85767
    5  H   0.86161
    6  H   0.85825
    7  H   0.86751
    8  H   0.86753
    9  H   0.85780
   10  H   0.86162
   11  H   0.85815

 **********************
 *                    *
 * JOB ENDED NORMALLY *
 *                    *
 **********************



 TOTAL JOB TIME:             0.30 SECONDS

 == MOPAC DONE ==
