 *******************************************************************************
 **                                                                           **
 **                              MOPAC v22.0.6                                **
 **                                                                           **
 *******************************************************************************
 **          Digital Object Identifier (DOI): 10.5281/zenodo.6511958          **
 **    Visit the DOI location for information on how to cite this program.    **
 *******************************************************************************

                              INDO CALCULATION RESULTS

 *******************************************************************************
 *  CALCULATION DONE:                                Wed Jul 12 16:26:01 2023  *
 *  INDO       - The INDO Hamiltonian to be used
 *  CIS        - C.I. USES 1 ELECTRON EXCITATIONS ONLY
 *  1SCF       - DO 1 SCF AND THEN STOP 
 *  T=         - A TIME OF 172800.0 SECONDS REQUESTED
 *  DUMP=N     - RESTART FILE WRITTEN EVERY 7200.0 SECONDS REQUESTED
 *******************************************************************************
1SCF INDO CIS
 comment1
 comment2
   ATOM   CHEMICAL          X               Y               Z
  NUMBER   SYMBOL      (ANGSTROMS)     (ANGSTROMS)     (ANGSTROMS)

     1       C         -0.67000000  *   0.00000000  *   0.00000000  *
     2       C          0.67000000  *   0.00000000  *   0.00000000  *
     3       H         -1.23000000  *  -0.93000000  *   0.00000000  *
     4       H         -1.23000000  *   0.93000000  *   0.00000000  *
     5       H          1.23000000  *  -0.93000000  *   0.00000000  *
     6       H          1.23000000  *   0.93000000  *   0.00000000  *



          CARTESIAN COORDINATES 

    NO.       ATOM           X           Y           Z

     1         C         -0.6700      0.0000      0.0000
     2         C          0.6700      0.0000      0.0000
     3         H         -1.2300     -0.9300      0.0000
     4         H         -1.2300      0.9300      0.0000
     5         H          1.2300     -0.9300      0.0000
     6         H          1.2300      0.9300      0.0000

           Empirical Formula: C2 H4  =     6 atoms



      MOLECULAR POINT GROUP   :   D2h 


      RHF CALCULATION, NO. OF DOUBLY OCCUPIED LEVELS = 6


 Summary of symmetry occupancy in each shell:

 SHELL     
    1    6
    v    6
 TOTAL  12


                     MOLECULAR ORBITALS 






    ROOT NO.    1           2           3           4           5           6

           -35.21189   -24.10511   -19.53313   -16.07585   -13.53540    -9.98566
  
  
  S  C   1   0.59643    -0.44544     0.00000     0.02664    -0.00000    -0.00000
 PX  C   1   0.16828     0.29758     0.00000     0.61383     0.00000    -0.00000
 PY  C   1  -0.00000     0.00000     0.51977    -0.00000    -0.45868    -0.00000
 PZ  C   1   0.00000    -0.00000     0.00000     0.00000     0.00000     0.70711
  
  S  C   2   0.59643     0.44544     0.00000     0.02664     0.00000     0.00000
 PX  C   2  -0.16828     0.29758    -0.00000    -0.61383     0.00000     0.00000
 PY  C   2  -0.00000    -0.00000     0.51977    -0.00000     0.45868    -0.00000
 PZ  C   2   0.00000    -0.00000     0.00000     0.00000     0.00000     0.70711
  
  S  H   3   0.24078    -0.32637    -0.33900    -0.24749     0.38053     0.00000
  
  S  H   4   0.24078    -0.32637     0.33900    -0.24749    -0.38053     0.00000
  
  S  H   5   0.24078     0.32637    -0.33900    -0.24749    -0.38053     0.00000
  
  S  H   6   0.24078     0.32637     0.33900    -0.24749     0.38053    -0.00000




    ROOT NO.    7           8           9          10          11          12

             1.35164     3.79059     5.06352     7.33858     7.93711    10.85409
  
  
  S  C   1  -0.00000     0.52298     0.37890     0.00000    -0.00000     0.16755
 PX  C   1   0.00000     0.04854    -0.30805    -0.00000    -0.00000     0.63960
 PY  C   1  -0.00000    -0.00000    -0.00000     0.47941    -0.53815    -0.00000
 PZ  C   1  -0.70711    -0.00000    -0.00000    -0.00000    -0.00000     0.00000
  
  S  C   2   0.00000    -0.52298     0.37890     0.00000     0.00000    -0.16755
 PX  C   2  -0.00000     0.04854     0.30805     0.00000    -0.00000     0.63960
 PY  C   2  -0.00000     0.00000    -0.00000     0.47941     0.53815     0.00000
 PZ  C   2   0.70711     0.00000     0.00000     0.00000    -0.00000    -0.00000
  
  S  H   3   0.00000    -0.33476    -0.36163     0.36753    -0.32434     0.17725
  
  S  H   4   0.00000    -0.33476    -0.36163    -0.36753     0.32434     0.17725
  
  S  H   5   0.00000     0.33476    -0.36163     0.36753     0.32434    -0.17725
  
  S  H   6  -0.00000     0.33476    -0.36163    -0.36753    -0.32434    -0.17725


 Reference determinate nber   1 is ALPHA 1 -   6
 SINGLE excitations FROM orbs   1 to   6 INTO orbs   7 to  12


 CI excitations=   37:        = 37
 The lowest   37 spin-adapted configurations of multiplicity=  1
     sym   eV   cm**-1 -dets- dipole oscilator X FRAG ....Excitations named from first reference determinate
                       tot  #  Debye  strength

   1      0.000      0.  1  1  0.0000 0.000000 0  0 (    )->(       )
   2      7.706  62149.  1  1  0.0000 0.000000 1  1 (   6)->(   8   )
   3      8.211  66230.  1  1  0.0000 0.000000 1  1 (   5)->(   7   )
   4      8.301  66952.  1  1  0.0000 0.652022 1  1 (   6)->(   7   )
   5      8.716  70299.  1  1  0.0000 0.096743 1  1 (   6)->(   9   )
   6     10.095  81424.  1  1  0.0000 0.000000 1  1 (   4)->(   7   )
   7     10.572  85269.  1  1  0.0000 0.000000 1  1 (   6)->(  10   )
   8     10.935  88195.  1  1  0.0000 0.000000 1  1 (   6)->(  11   )
   9     12.222  98581.  1  1  0.0000 0.131938 1  1 (   5)->(   8   )
  10     13.331 107519.  1  1  0.0000 0.000000 1  1 (   5)->(   9   )
  11     13.359 107745.  1  1  0.0000 0.000000 1  1 (   6)->(  12   )
  12     13.973 112704.  1  1  0.0000 0.000000 1  1 (   3)->(   7   )
  13     14.449 116540.  1  1  0.0000 0.067353 1  1 (   4)->(   8   )
  14     15.669 126382.  1  1  0.0000 0.000000 1  1 (   4)->(   9   )
  15     15.873 128023.  1  1  0.0000 0.429923 1  1 (   5)->(  10   )
  16     16.572 133661.  1  1  0.0000 0.000000 1  1 (   5)->(  11   )
  17     17.312 139631.  1  1  0.0000 0.371881 1  1 (   4)->(  10   )
  18     17.572 141731.  1  1  0.0000 0.000000 1  1 (   4)->(  11   )
  19     17.889 144282.  1  1  0.0000 0.000000 1  1 (   3)->(   8   )
  20     18.090 145906.  1  1  0.0000 0.330564 1  1 (   5)->(  12   )
  21     19.105 154095.  1  1  0.0000 0.293087 1  1 (   2)->(   7   )
  22     19.262 155363.  1  1  0.0000 0.247350 1  1 (   3)->(   9   )
  23     21.989 177354.  1  1  0.0000 0.000000 1  1 (   3)->(  10   )
  24     22.318 180007.  1  1  0.0000 0.107783 1  1 (   3)->(  11   )
  25     22.445 181035.  1  1  0.0000 0.162722 1  1 (   4)->(  12   )
  26     22.610 182366.  1  1  0.0000 0.000000 1  1 (   2)->(   8   )
  27     23.807 192016.  1  1  0.0000 0.000000 1  1 (   3)->(  12   )
  28     24.218 195329.  1  1  0.0000 0.000046 1  1 (   2)->(   9   )
  29     25.960 209383.  1  1  0.0000 0.000000 1  1 (   2)->(  10   )
  30     26.481 213587.  1  1  0.0000 0.131452 1  1 (   2)->(  11   )
  31     28.916 233224.  1  1  0.0000 0.000000 1  1 (   2)->(  12   )
  32     30.326 244594.  1  1  0.0000 0.000000 1  1 (   1)->(   7   )
  33     33.808 272683.  1  1  0.0000 0.035628 1  1 (   1)->(   8   )
  34     34.548 278649.  1  1  0.0000 0.000000 1  1 (   1)->(   9   )
  35     36.928 297847.  1  1  0.0000 0.023580 1  1 (   1)->(  10   )
  36     37.328 301072.  1  1  0.0000 0.000000 1  1 (   1)->(  11   )
  37     41.059 331165.  1  1  0.0000 0.076217 1  1 (   1)->(  12   )

 Depression of ground-state after CI=          0. cm**-1 Energy=  -688.0001542 eV
 Dipole moment=  0.000000  0.000000  0.000000 tot=  0.000000 Debyes


  CI trans.  energy frequency wavelength oscillator--------- polarization---------  dipole  ------ components-----
 st.  symm.    eV      cm - 1       nm      strength       x          y         z       moment     x       y       z 

   2      7.0997071    57263.    174.63  0.499834  -1.000000   0.000000   0.000000  0.000000   0.000   0.000  -0.000
   3      7.6734243    61890.    161.58  0.000000                                   0.000000   0.000   0.000   0.000
   4      8.2054255    66181.    151.10  0.000000                                   0.000000   0.000   0.000  -0.000
   5      8.6974920    70150.    142.55  0.087076   0.000000  -0.000000   1.000000  0.000000  -0.000   0.000   0.000
   6     10.0730786    81245.    123.08  0.000000                                   0.000000   0.000   0.000  -0.000
   7     10.5779256    85317.    117.21  0.000000                                   0.000000   0.000  -0.000  -0.000
   8     10.9272849    88135.    113.46  0.000000                                   0.000000  -0.000  -0.000   0.000
   9     12.0923638    97532.    102.53  0.074567  -0.000000   1.000000   0.000000  0.000000   0.000   0.000   0.000
  10     13.2300827   106708.     93.71  0.000000                                   0.000000   0.000   0.000   0.000
  11     13.3767082   107891.     92.69  0.000000                                   0.000000   0.000   0.000   0.000
  12     13.9810034   112765.     88.68  0.000000                                   0.000000   0.000   0.000  -0.000
  13     14.4067678   116199.     86.06  0.046107  -1.000000   0.000000  -0.000000  0.000000   0.000   0.000   0.000
  14     15.0919579   121725.     82.15  0.000000                                   0.000000   0.000   0.000   0.000
  15     15.7414776   126964.     78.76  0.500716   1.000000  -0.000000   0.000000  0.000000   0.000  -0.000   0.000
  16     16.8537898   135935.     73.56  0.000000                                   0.000000   0.000   0.000   0.000
  17     17.0340376   137389.     72.79  0.057082   0.000000   1.000000   0.000000  0.000000   0.000  -0.000   0.000
  18     17.4736901   140935.     70.95  0.000000                                   0.000000   0.000  -0.000   0.000
  19     17.8881470   144278.     69.31  0.000000                                   0.000000   0.000   0.000   0.000
  20     18.2228836   146978.     68.04  0.810698  -0.000000  -1.000000  -0.000000  0.000000   0.000  -0.000   0.000
  21     19.1236797   154243.     64.83  0.314177   0.000000  -0.000000  -1.000000  0.000000   0.000   0.000   0.000
  22     19.3497646   156067.     64.08  0.129788   0.000000   1.000000  -0.000000  0.000000   0.000   0.000   0.000
  23     21.1677139   170730.     58.57  0.220429  -1.000000   0.000000  -0.000000  0.000000   0.000   0.000   0.000
  24     21.3930830   172547.     57.96  0.000000                                   0.000000  -0.000  -0.000  -0.000
  25     22.9400041   185024.     54.05  0.071941  -1.000000  -0.000000   0.000000  0.000000   0.000   0.000   0.000
  26     23.1583474   186785.     53.54  0.000000                                   0.000000   0.000   0.000   0.000
  27     23.8498716   192363.     51.99  0.000000                                   0.000000   0.000   0.000   0.000
  28     25.3189067   204211.     48.97  0.040271  -1.000000   0.000000  -0.000000  0.000000   0.000   0.000   0.000
  29     26.0703684   210272.     47.56  0.000000                                   0.000000   0.000  -0.000   0.000
  30     26.6054837   214588.     46.60  0.183318  -0.000000  -1.000000  -0.000000  0.000000   0.000  -0.000   0.000
  31     29.1438301   235061.     42.54  0.000000                                   0.000000   0.000   0.000   0.000
  32     30.3618387   244885.     40.84  0.000000                                   0.000000   0.000   0.000  -0.000
  33     34.2127266   275945.     36.24  0.009208   1.000000  -0.000000   0.000000  0.000000   0.000   0.000   0.000
  34     34.6634840   279581.     35.77  0.000000                                   0.000000  -0.000   0.000   0.000
  35     36.9919013   298361.     33.52  0.051400   0.000000   1.000000  -0.000000  0.000000   0.000  -0.000   0.000
  36     37.3747459   301448.     33.17  0.000000                                   0.000000   0.000  -0.000   0.000
  37     41.5838591   335397.     29.82  0.185704  -1.000000   0.000000   0.000000  0.000000   0.000   0.000   0.000

 Polarizability (au  ) xx=   28.80 xy=    0.00 yy=    8.42 xz=    0.00 yz=    0.00 zz=    4.47
 Polarizability (A**3) xx=    4.27 xy=    0.00 yy=    1.25 xz=    0.00 yz=    0.00 zz=    0.66


 Major CI contributions to CI states

State    1  0.0000     CI coeff  CI percent
    Config       1   1.00000000  1.00000000
 Total coeff printed             1.00000000
  
State    2  7.0997     CI coeff  CI percent
    Config       4  -0.96675108  0.93460764
    Config      13  -0.11734443  0.01376972
    Config      15   0.07426161  0.00551479
    Config      24   0.08126760  0.00660442
    Config      25  -0.17787648  0.03164004
    Config      28   0.05468218  0.00299014
    Config      33  -0.05285709  0.00279387
    Config      37  -0.04560016  0.00207937
 Total coeff printed             1.00000000
  
State    3  7.6734     CI coeff  CI percent
    Config       2  -0.99838085  0.99676433
 Total coeff printed             0.99676433
  
State    4  8.2054     CI coeff  CI percent
    Config       3   0.99873795  0.99747750
    Config       7  -0.05022454  0.00252250
 Total coeff printed             1.00000000
  
State    5  8.6975     CI coeff  CI percent
    Config       5   0.99911698  0.99823474
    Config      21  -0.04201498  0.00176526
 Total coeff printed             1.00000000
  
State    6 10.0731     CI coeff  CI percent
    Config       6  -0.99699459  0.99399821
    Config      11  -0.06752303  0.00455936
 Total coeff printed             0.99855757
  
State    7 10.5779     CI coeff  CI percent
    Config       3   0.05022454  0.00252250
    Config       7   0.99873795  0.99747750
 Total coeff printed             1.00000000
  
State    8 10.9273     CI coeff  CI percent
    Config       8   0.99876750  0.99753652
    Config      12  -0.04963343  0.00246348
 Total coeff printed             1.00000000
  
State    9 12.0924     CI coeff  CI percent
    Config       9   0.99222696  0.98451435
    Config      17  -0.07542681  0.00568920
    Config      20   0.07959173  0.00633484
    Config      30   0.05009101  0.00250911
 Total coeff printed             0.99904750
  
State   10 13.2301     CI coeff  CI percent
    Config      10  -0.99245684  0.98497057
    Config      18  -0.08577880  0.00735800
    Config      19   0.05204155  0.00270832
    Config      27  -0.04393180  0.00193000
    Config      29   0.05053825  0.00255411
 Total coeff printed             0.99952102
  
State   11 13.3767     CI coeff  CI percent
    Config       6  -0.06891712  0.00474957
    Config      11   0.99692010  0.99384968
 Total coeff printed             0.99859925
  
State   12 13.9810     CI coeff  CI percent
    Config       8  -0.04963343  0.00246348
    Config      12  -0.99876750  0.99753652
 Total coeff printed             1.00000000
  
State   13 14.4068     CI coeff  CI percent
    Config       4  -0.10741483  0.01153795
    Config      13   0.97058689  0.94203891
    Config      15  -0.17915582  0.03209681
    Config      25  -0.10361725  0.01073653
    Config      37  -0.04748199  0.00225454
 Total coeff printed             0.99866474
  
State   14 15.0920     CI coeff  CI percent
    Config      14  -0.86206413  0.74315456
    Config      16  -0.49565424  0.24567313
    Config      23  -0.09523251  0.00906923
    Config      26  -0.04116003  0.00169415
 Total coeff printed             0.99959107
  
State   15 15.7415     CI coeff  CI percent
    Config      13  -0.19720301  0.03888903
    Config      15  -0.96639121  0.93391197
    Config      24  -0.06028211  0.00363393
    Config      25  -0.12253128  0.01501391
    Config      28   0.08196942  0.00671899
 Total coeff printed             0.99816783
  
State   16 16.8538     CI coeff  CI percent
    Config      14   0.49132459  0.24139985
    Config      16  -0.85719814  0.73478866
    Config      23   0.05787748  0.00334980
    Config      26  -0.12594730  0.01586272
    Config      34   0.05643059  0.00318441
 Total coeff printed             0.99858545
  
State   17 17.0340     CI coeff  CI percent
    Config       9   0.04170468  0.00173928
    Config      17   0.88490617  0.78305893
    Config      20   0.39136065  0.15316316
    Config      22   0.24013662  0.05766560
    Config      30  -0.06329116  0.00400577
 Total coeff printed             0.99963274
  
State   18 17.4737     CI coeff  CI percent
    Config      10  -0.10363316  0.01073983
    Config      18   0.89269845  0.79691052
    Config      19  -0.43102190  0.18577988
    Config      29  -0.08022008  0.00643526
 Total coeff printed             0.99986549
  
State   19 17.8881     CI coeff  CI percent
    Config      18   0.43617625  0.19024972
    Config      19   0.89487082  0.80079378
    Config      27   0.07526170  0.00566432
    Config      29   0.04087214  0.00167053
 Total coeff printed             0.99837836
  
State   20 18.2229     CI coeff  CI percent
    Config       9  -0.09870324  0.00974233
    Config      17  -0.43409019  0.18843429
    Config      20   0.87494116  0.76552204
    Config      22   0.18684933  0.03491267
 Total coeff printed             0.99861133
  
State   21 19.1237     CI coeff  CI percent
    Config       5  -0.04201498  0.00176526
    Config      21  -0.99911698  0.99823474
 Total coeff printed             1.00000000
  
State   22 19.3498     CI coeff  CI percent
    Config      17   0.14248960  0.02030329
    Config      20   0.27301115  0.07453509
    Config      22  -0.94705980  0.89692226
    Config      30   0.07882156  0.00621284
 Total coeff printed             0.99797347
  
State   23 21.1677     CI coeff  CI percent
    Config       4  -0.05958835  0.00355077
    Config      15  -0.13463221  0.01812583
    Config      24   0.78299468  0.61308067
    Config      25   0.59806650  0.35768354
    Config      28  -0.07121558  0.00507166
 Total coeff printed             0.99751247
  
State   24 21.3931     CI coeff  CI percent
    Config      14  -0.07401476  0.00547819
    Config      16  -0.07344116  0.00539360
    Config      23   0.81440801  0.66326041
    Config      26   0.56950126  0.32433169
 Total coeff printed             0.99846389
  
State   25 22.9400     CI coeff  CI percent
    Config       4  -0.10576349  0.01118592
    Config      24  -0.42528953  0.18087119
    Config      25   0.61319898  0.37601299
    Config      28   0.64105584  0.41095259
    Config      33  -0.13124137  0.01722430
    Config      37  -0.05393611  0.00290910
 Total coeff printed             0.99915608
  
State   26 23.1583     CI coeff  CI percent
    Config      14   0.07950577  0.00632117
    Config      16  -0.09783777  0.00957223
    Config      23  -0.55787355  0.31122290
    Config      26   0.79698457  0.63518441
    Config      31   0.18839275  0.03549183
    Config      34   0.04698368  0.00220747
 Total coeff printed             1.00000000
  
State   27 23.8499     CI coeff  CI percent
    Config      10  -0.04711699  0.00222001
    Config      18  -0.04176641  0.00174443
    Config      19  -0.05952108  0.00354276
    Config      27   0.99367355  0.98738713
    Config      29  -0.07144920  0.00510499
 Total coeff printed             0.99999932
  
State   28 25.3189     CI coeff  CI percent
    Config       4  -0.15414664  0.02376119
    Config      15  -0.08840583  0.00781559
    Config      24  -0.42846243  0.18358005
    Config      25   0.42217467  0.17823146
    Config      28  -0.75552216  0.57081373
    Config      33  -0.16626999  0.02764571
    Config      37  -0.08411224  0.00707487
 Total coeff printed             0.99892259
  
State   29 26.0704     CI coeff  CI percent
    Config      18  -0.05515985  0.00304261
    Config      19   0.07915145  0.00626495
    Config      27  -0.07073010  0.00500275
    Config      29  -0.99195854  0.98398175
 Total coeff printed             0.99829206
  
State   30 26.6055     CI coeff  CI percent
    Config       9  -0.04768317  0.00227368
    Config      22   0.09582080  0.00918163
    Config      30   0.99330805  0.98666088
 Total coeff printed             0.99811619
  
State   31 29.1438     CI coeff  CI percent
    Config      16  -0.05291617  0.00280012
    Config      23  -0.09975944  0.00995195
    Config      26   0.15077941  0.02273443
    Config      31  -0.98113865  0.96263306
 Total coeff printed             0.99811956
  
State   32 30.3618     CI coeff  CI percent
    Config      32   0.99915725  0.99831521
 Total coeff printed             0.99831521
  
State   33 34.2127     CI coeff  CI percent
    Config       4  -0.08571864  0.00734768
    Config      15  -0.04741728  0.00224840
    Config      24  -0.09698212  0.00940553
    Config      25   0.14538941  0.02113808
    Config      33   0.96455225  0.93036104
    Config      37  -0.16829473  0.02832311
 Total coeff printed             0.99882385
  
State   34 34.6635     CI coeff  CI percent
    Config      14   0.05266461  0.00277356
    Config      16  -0.04209822  0.00177226
    Config      23  -0.05608668  0.00314572
    Config      34  -0.99583854  0.99169441
 Total coeff printed             0.99938594
  
State   35 36.9919     CI coeff  CI percent
    Config      35  -0.99840378  0.99681011
 Total coeff printed             0.99681011
  
State   36 37.3747     CI coeff  CI percent
    Config      36  -0.99881892  0.99763924
 Total coeff printed             0.99763924
  
State   37 41.5839     CI coeff  CI percent
    Config       4  -0.08539239  0.00729186
    Config      13   0.04904014  0.00240493
    Config      24  -0.05308641  0.00281817
    Config      25   0.09769060  0.00954345
    Config      33   0.14082424  0.01983147
    Config      37   0.97811253  0.95670412
 Total coeff printed             0.99859400
  

 -------------------------------------------------------------------------------
 1SCF INDO CIS
 comment1
 comment2


     1SCF WAS SPECIFIED, SO BFGS WAS NOT USED                 
     SCF FIELD WAS ACHIEVED                                   


                              INDO CALCULATION
                                                       MOPAC v22.0.6 MacOS
                                                       Wed Jul 12 16:26:02 2023


          COSMO AREA              =         71.45 SQUARE ANGSTROMS
          COSMO VOLUME            =         53.18 CUBIC ANGSTROMS

          IONIZATION POTENTIAL    =          9.985662 EV
          HOMO LUMO ENERGIES (EV) =         -9.986  1.352
          NO. OF FILLED LEVELS    =          6
          MOLECULAR WEIGHT        =         28.0536         POINT GROUP:  D2h 

          MOLECULAR DIMENSIONS (Angstroms)

            Atom       Atom       Distance
            H     5    H     4     3.08402
            H     6    H     3     2.96729
            C     1    C     2     0.00000


          SCF CALCULATIONS        =          1

          WALL-CLOCK TIME         =      0.051 SECONDS
          COMPUTATION TIME        =      0.049 SECONDS




   ATOM   CHEMICAL          X               Y               Z
  NUMBER   SYMBOL      (ANGSTROMS)     (ANGSTROMS)     (ANGSTROMS)

     1       C         -0.67000000  *   0.00000000  *   0.00000000  *
     2       C          0.67000000  *   0.00000000  *   0.00000000  *
     3       H         -1.23000000  *  -0.93000000  *   0.00000000  *
     4       H         -1.23000000  *   0.93000000  *   0.00000000  *
     5       H          1.23000000  *  -0.93000000  *   0.00000000  *
     6       H          1.23000000  *   0.93000000  *   0.00000000  *

                             CARTESIAN COORDINATES

   1    C       -0.670000000     0.000000000     0.000000000
   2    C        0.670000000     0.000000000     0.000000000
   3    H       -1.230000000    -0.930000000     0.000000000
   4    H       -1.230000000     0.930000000     0.000000000
   5    H        1.230000000    -0.930000000     0.000000000
   6    H        1.230000000     0.930000000     0.000000000


           Empirical Formula: C2 H4  =     6 atoms



      MOLECULAR POINT GROUP   :   D2h 


                  EIGENVALUES  
 -35.21189 -24.10511 -19.53313 -16.07585 -13.53540  -9.98566   1.35164   3.79059
   5.06352   7.33858   7.93711  10.85409


              NET ATOMIC CHARGES AND DIPOLE CONTRIBUTIONS

  ATOM NO.   TYPE          CHARGE      No. of ELECS.   s-Pop       p-Pop       
    1          C          -0.058134        4.0581     1.10971     2.94843
    2          C          -0.058134        4.0581     1.10971     2.94843
    3          H           0.029067        0.9709     0.97093
    4          H           0.029067        0.9709     0.97093
    5          H           0.029067        0.9709     0.97093
    6          H           0.029067        0.9709     0.97093
 DIPOLE           X         Y         Z       TOTAL
 POINT-CHG.     0.000     0.000     0.000     0.000
 HYBRID        -0.000    -0.000     0.000     0.000
 SUM            0.000     0.000     0.000     0.000


          ATOMIC ORBITAL ELECTRON POPULATIONS

     Atom    s        px        py        pz   
    1  C   1.10971   0.98732   0.96110   1.00000
    2  C   1.10971   0.98732   0.96110   1.00000
    3  H   0.97093
    4  H   0.97093
    5  H   0.97093
    6  H   0.97093
 *******************************************************************************
 **                                                                           **
 **                              MOPAC v22.0.6                                **
 **                                                                           **
 *******************************************************************************
 **          Digital Object Identifier (DOI): 10.5281/zenodo.6511958          **
 **    Visit the DOI location for information on how to cite this program.    **
 *******************************************************************************

                              INDO CALCULATION RESULTS

 *******************************************************************************
 *  CALCULATION DONE:                                Wed Jul 12 16:26:02 2023  *
 *  INDO       - The INDO Hamiltonian to be used
 *  MRCI       -  Use multi-reference CI (specify ref dets using C.A.S.)
 *  1SCF       - DO 1 SCF AND THEN STOP 
 *  T=         - A TIME OF 172800.0 SECONDS REQUESTED
 *  DUMP=N     - RESTART FILE WRITTEN EVERY 7200.0 SECONDS REQUESTED
 *******************************************************************************
1SCF INDO MRCI
 comment1
 comment2
   ATOM   CHEMICAL          X               Y               Z
  NUMBER   SYMBOL      (ANGSTROMS)     (ANGSTROMS)     (ANGSTROMS)

     1       C         -0.67000000  *   0.00000000  *   0.00000000  *
     2       C          0.67000000  *   0.00000000  *   0.00000000  *
     3       H         -1.23000000  *  -0.93000000  *   0.00000000  *
     4       H         -1.23000000  *   0.93000000  *   0.00000000  *
     5       H          1.23000000  *  -0.93000000  *   0.00000000  *
     6       H          1.23000000  *   0.93000000  *   0.00000000  *



          CARTESIAN COORDINATES 

    NO.       ATOM           X           Y           Z

     1         C         -0.6700      0.0000      0.0000
     2         C          0.6700      0.0000      0.0000
     3         H         -1.2300     -0.9300      0.0000
     4         H         -1.2300      0.9300      0.0000
     5         H          1.2300     -0.9300      0.0000
     6         H          1.2300      0.9300      0.0000

           Empirical Formula: C2 H4  =     6 atoms



      MOLECULAR POINT GROUP   :   D2h 


      RHF CALCULATION, NO. OF DOUBLY OCCUPIED LEVELS = 6


 Summary of symmetry occupancy in each shell:

 SHELL     
    1    6
    v    6
 TOTAL  12


                     MOLECULAR ORBITALS 






    ROOT NO.    1           2           3           4           5           6

           -35.21189   -24.10511   -19.53313   -16.07585   -13.53540    -9.98566
  
  
  S  C   1   0.59643    -0.44544     0.00000     0.02664    -0.00000    -0.00000
 PX  C   1   0.16828     0.29758     0.00000     0.61383     0.00000    -0.00000
 PY  C   1  -0.00000     0.00000     0.51977    -0.00000    -0.45868    -0.00000
 PZ  C   1   0.00000    -0.00000     0.00000     0.00000     0.00000     0.70711
  
  S  C   2   0.59643     0.44544     0.00000     0.02664     0.00000     0.00000
 PX  C   2  -0.16828     0.29758    -0.00000    -0.61383     0.00000     0.00000
 PY  C   2  -0.00000    -0.00000     0.51977    -0.00000     0.45868    -0.00000
 PZ  C   2   0.00000    -0.00000     0.00000     0.00000     0.00000     0.70711
  
  S  H   3   0.24078    -0.32637    -0.33900    -0.24749     0.38053     0.00000
  
  S  H   4   0.24078    -0.32637     0.33900    -0.24749    -0.38053     0.00000
  
  S  H   5   0.24078     0.32637    -0.33900    -0.24749    -0.38053     0.00000
  
  S  H   6   0.24078     0.32637     0.33900    -0.24749     0.38053    -0.00000




    ROOT NO.    7           8           9          10          11          12

             1.35164     3.79059     5.06352     7.33858     7.93711    10.85409
  
  
  S  C   1  -0.00000     0.52298     0.37890     0.00000    -0.00000     0.16755
 PX  C   1   0.00000     0.04854    -0.30805    -0.00000    -0.00000     0.63960
 PY  C   1  -0.00000    -0.00000    -0.00000     0.47941    -0.53815    -0.00000
 PZ  C   1  -0.70711    -0.00000    -0.00000    -0.00000    -0.00000     0.00000
  
  S  C   2   0.00000    -0.52298     0.37890     0.00000     0.00000    -0.16755
 PX  C   2  -0.00000     0.04854     0.30805     0.00000    -0.00000     0.63960
 PY  C   2  -0.00000     0.00000    -0.00000     0.47941     0.53815     0.00000
 PZ  C   2   0.70711     0.00000     0.00000     0.00000    -0.00000    -0.00000
  
  S  H   3   0.00000    -0.33476    -0.36163     0.36753    -0.32434     0.17725
  
  S  H   4   0.00000    -0.33476    -0.36163    -0.36753     0.32434     0.17725
  
  S  H   5   0.00000     0.33476    -0.36163     0.36753     0.32434    -0.17725
  
  S  H   6  -0.00000     0.33476    -0.36163    -0.36753    -0.32434    -0.17725


 Reference determinate nber   1 is ALPHA 1 -   6
 CAS excitations amongst orbitals:   6   7
 SINGLE excitations FROM orbs   1 to   6 INTO orbs   7 to  12


 CI excitations=  123:        =123
 The lowest  123 spin-adapted configurations of multiplicity=  1
     sym   eV   cm**-1 -dets- dipole oscilator X FRAG ....Excitations named from first reference determinate
                       tot  #  Debye  strength

   1     -0.000      0.  1  1  0.0000 0.000000 0  0 (            )->(               )
   2      7.706  62149.  2  1  0.0000 0.000000 1  1 (   6        )->(   8           )
   3      8.211  66230.  2  1  0.0000 0.000000 1  1 (   5        )->(   7           )
   4      8.301  66952.  2  1  0.0000 0.652022 1  1 (   6        )->(   7           )
   5      8.716  70299.  2  1  0.0000 0.096743 1  1 (   6        )->(   9           )
   6     10.095  81424.  2  1  0.0000 0.000000 1  1 (   4        )->(   7           )
   7     10.572  85269.  2  1  0.0000 0.000000 1  1 (   6        )->(  10           )
   8     10.738  86611.  1  1  0.0000 0.000000 2  0 (   6   6    )->(   7   7       )
   9     10.935  88195.  2  1  0.0000 0.000000 1  1 (   6        )->(  11           )
  10     12.222  98581.  2  1  0.0000 0.131938 1  1 (   5        )->(   8           )
  11     13.075 105455.  2  1  0.0000 0.000000 2  1 (   6   6    )->(   7   8       )
  12     13.331 107520.  2  1  0.0000 0.000000 1  1 (   5        )->(   9           )
  13     13.359 107745.  2  1  0.0000 0.000000 1  1 (   6        )->(  12           )
  14     13.581 109535.  2  1  0.0000 0.000000 2  1 (   5   6    )->(   7   7       )
  15     13.973 112704.  2  1  0.0000 0.000000 1  1 (   3        )->(   7           )
  16     14.085 113604.  2  1  0.0000 0.000000 2  1 (   6   6    )->(   7   9       )
  17     14.449 116540.  2  1  0.0000 0.067353 1  1 (   4        )->(   8           )
  18     14.566 117485.  6  1  0.0000 0.000000 2  1 (   5   6    )->(   7   8       )
  19     15.405 124249.  6  1  0.0000 0.000000 2  1 (   5   6    )->(   7   9       )
  20     15.464 124729.  2  1  0.0000 0.000000 2  1 (   4   6    )->(   7   7       )
  21     15.669 126382.  2  1  0.0000 0.000000 1  1 (   4        )->(   9           )
  22     15.873 128023.  2  1  0.0000 0.429924 1  1 (   5        )->(  10           )
  23     15.941 128574.  2  1  0.0000 0.000000 2  1 (   6   6    )->(   7  10       )
  24     16.304 131501.  2  1  0.0000 0.000000 2  1 (   6   6    )->(   7  11       )
  25     16.572 133661.  2  1  0.0000 0.000000 1  1 (   5        )->(  11           )
  26     16.908 136371.  6  1  0.0000 0.000000 2  1 (   4   6    )->(   7   8       )
  27     17.093 137864.  6  1  0.0000 0.000000 2  1 (   5   6    )->(   7  10       )
  28     17.312 139631.  2  1  0.0000 0.371881 1  1 (   4        )->(  10           )
  29     17.572 141731.  2  1  0.0000 0.000000 1  1 (   4        )->(  11           )
  30     17.660 142435.  6  1  0.0000 0.000000 2  1 (   5   6    )->(   7  11       )
  31     17.813 143670.  6  1  0.0000 0.000000 2  1 (   4   6    )->(   7   9       )
  32     17.889 144282.  2  1  0.0000 0.000000 1  1 (   3        )->(   8           )
  33     18.090 145906.  2  1  0.0000 0.330564 1  1 (   5        )->(  12           )
  34     18.728 151050.  2  1  0.0000 0.000000 2  1 (   6   6    )->(   7  12       )
  35     19.105 154095.  2  1  0.0000 0.293087 1  1 (   2        )->(   7           )
  36     19.262 155363.  2  1  0.0000 0.247350 1  1 (   3        )->(   9           )
  37     19.343 156010.  2  1  0.0000 0.000000 2  1 (   3   6    )->(   7   7       )
  38     19.684 158765.  6  1  0.0000 0.000000 2  1 (   4   6    )->(   7  10       )
  39     20.145 162480.  6  1  0.0000 0.000000 2  1 (   4   6    )->(   7  11       )
  40     20.495 165307.  6  1  0.0000 0.000000 2  1 (   3   6    )->(   7   8       )
  41     20.523 165532.  6  2  0.0000 0.000000 2  1 (   5   6    )->(   7   8       )
  42     20.792 167697.  6  1  0.0000 0.000000 2  1 (   5   6    )->(   7  12       )
  43     21.369 172357.  6  1  0.0000 0.000000 2  1 (   3   6    )->(   7   9       )
  44     21.632 174471.  6  2  0.0000 0.000000 2  1 (   5   6    )->(   7   9       )
  45     21.989 177354.  2  1  0.0000 0.000000 1  1 (   3        )->(  10           )
  46     22.318 180006.  2  1  0.0000 0.107783 1  1 (   3        )->(  11           )
  47     22.445 181035.  2  1  0.0000 0.162722 1  1 (   4        )->(  12           )
  48     22.447 181044.  6  1  0.0000 0.000000 2  1 (   4   6    )->(   7  12       )
  49     22.610 182366.  2  1  0.0000 0.000000 1  1 (   2        )->(   8           )
  50     22.750 183492.  6  2  0.0000 0.000000 2  1 (   4   6    )->(   7   8       )
  51     22.961 185192.  2  1  0.0000 0.000000 3  1 (   5   6   6)->(   7   7   8   )
  52     23.041 185837.  6  1  0.0000 0.000000 2  1 (   3   6    )->(   7  10       )
  53     23.552 189961.  6  1  0.0000 0.000000 2  1 (   3   6    )->(   7  11       )
  54     23.807 192016.  2  1  0.0000 0.000000 1  1 (   3        )->(  12           )
  55     23.970 193334.  6  2  0.0000 0.000000 2  1 (   4   6    )->(   7   9       )
  56     24.069 194131.  2  1  0.0000 0.000000 3  1 (   5   6   6)->(   7   7   9   )
  57     24.174 194975.  6  2  0.0000 0.000000 2  1 (   5   6    )->(   7  10       )
  58     24.218 195329.  2  1  0.0000 0.000046 1  1 (   2        )->(   9           )
  59     24.474 197400.  2  1  0.0000 0.000000 2  1 (   2   6    )->(   7   7       )
  60     24.873 200612.  6  2  0.0000 0.000000 2  1 (   5   6    )->(   7  11       )
  61     25.188 203151.  2  1  0.0000 0.000000 3  1 (   4   6   6)->(   7   7   8   )
  62     25.613 206582.  6  2  0.0000 0.000000 2  1 (   4   6    )->(   7  10       )
  63     25.807 208147.  6  1  0.0000 0.000000 2  1 (   2   6    )->(   7   8       )
  64     25.873 208683.  6  2  0.0000 0.000000 2  1 (   4   6    )->(   7  11       )
  65     25.960 209383.  2  1  0.0000 0.000000 1  1 (   2        )->(  10           )
  66     26.190 211234.  6  2  0.0000 0.000000 2  1 (   3   6    )->(   7   8       )
  67     26.313 212232.  6  1  0.0000 0.000000 2  1 (   2   6    )->(   7   9       )
  68     26.391 212858.  6  2  0.0000 0.000000 2  1 (   5   6    )->(   7  12       )
  69     26.408 212993.  2  1  0.0000 0.000000 3  1 (   4   6   6)->(   7   7   9   )
  70     26.481 213587.  2  1  0.0000 0.131452 1  1 (   2        )->(  11           )
  71     26.603 214566.  6  1  0.0000 0.000000 2  1 (   3   6    )->(   7  12       )
  72     26.611 214634.  2  1  0.0000 0.000000 3  1 (   5   6   6)->(   7   7  10   )
  73     27.310 220272.  2  1  0.0000 0.000000 3  1 (   5   6   6)->(   7   7  11   )
  74     27.563 222314.  6  2  0.0000 0.000000 2  1 (   3   6    )->(   7   9       )
  75     28.050 226242.  2  1  0.0000 0.000000 3  1 (   4   6   6)->(   7   7  10   )
  76     28.311 228343.  2  1  0.0000 0.000000 3  1 (   4   6   6)->(   7   7  11   )
  77     28.406 229113.  6  1  0.0000 0.000000 2  1 (   2   6    )->(   7  10       )
  78     28.627 230893.  2  1  0.0000 0.000000 3  1 (   3   6   6)->(   7   7   8   )
  79     28.828 232518.  2  1  0.0000 0.000000 3  1 (   5   6   6)->(   7   7  12   )
  80     28.916 233224.  2  1  0.0000 0.000000 1  1 (   2        )->(  12           )
  81     28.931 233342.  6  1  0.0000 0.000000 2  1 (   2   6    )->(   7  11       )
  82     30.001 241974.  2  1  0.0000 0.000000 3  1 (   3   6   6)->(   7   7   9   )
  83     30.290 244305.  6  2  0.0000 0.000000 2  1 (   3   6    )->(   7  10       )
  84     30.326 244594.  2  1  0.0000 0.000000 1  1 (   1        )->(   7           )
  85     30.619 246958.  6  2  0.0000 0.000000 2  1 (   3   6    )->(   7  11       )
  86     30.746 247987.  6  2  0.0000 0.000000 2  1 (   4   6    )->(   7  12       )
  87     30.911 249318.  6  2  0.0000 0.000000 2  1 (   2   6    )->(   7   8       )
  88     31.944 257648.  6  1  0.0000 0.000000 2  1 (   2   6    )->(   7  12       )
  89     32.108 258968.  6  2  0.0000 0.000000 2  1 (   3   6    )->(   7  12       )
  90     32.519 262281.  6  2  0.0000 0.000000 2  1 (   2   6    )->(   7   9       )
  91     32.727 263965.  2  1  0.0000 0.000000 3  1 (   3   6   6)->(   7   7  10   )
  92     33.056 266618.  2  1  0.0000 0.000000 3  1 (   3   6   6)->(   7   7  11   )
  93     33.184 267646.  2  1  0.0000 0.000000 3  1 (   4   6   6)->(   7   7  12   )
  94     33.349 268977.  2  1  0.0000 0.000000 3  1 (   2   6   6)->(   7   7   8   )
  95     33.808 272683.  2  1  0.0000 0.035628 1  1 (   1        )->(   8           )
  96     34.261 276335.  6  2  0.0000 0.000000 2  1 (   2   6    )->(   7  10       )
  97     34.545 278627.  2  1  0.0000 0.000000 3  1 (   3   6   6)->(   7   7  12   )
  98     34.548 278649.  2  1  0.0000 0.000000 1  1 (   1        )->(   9           )
  99     34.782 280539.  6  2  0.0000 0.000000 2  1 (   2   6    )->(   7  11       )
 100     34.956 281940.  2  1  0.0000 0.000000 3  1 (   2   6   6)->(   7   7   9   )
 101     35.695 287899.  2  1  0.0000 0.000000 2  1 (   1   6    )->(   7   7       )
 102     36.699 295994.  2  1  0.0000 0.000000 3  1 (   2   6   6)->(   7   7  10   )
 103     36.928 297847.  2  1  0.0000 0.023580 1  1 (   1        )->(  10           )
 104     37.217 300175.  6  2  0.0000 0.000000 2  1 (   2   6    )->(   7  12       )
 105     37.220 300198.  2  1  0.0000 0.000000 3  1 (   2   6   6)->(   7   7  11   )
 106     37.247 300415.  6  1  0.0000 0.000000 2  1 (   1   6    )->(   7   8       )
 107     37.328 301072.  2  1  0.0000 0.000000 1  1 (   1        )->(  11           )
 108     38.421 309888.  6  1  0.0000 0.000000 2  1 (   1   6    )->(   7   9       )
 109     39.654 319835.  2  1  0.0000 0.000000 3  1 (   2   6   6)->(   7   7  12   )
 110     40.008 322684.  6  1  0.0000 0.000000 2  1 (   1   6    )->(   7  10       )
 111     40.448 326233.  6  1  0.0000 0.000000 2  1 (   1   6    )->(   7  11       )
 112     41.059 331165.  2  1  0.0000 0.076217 1  1 (   1        )->(  12           )
 113     42.109 339634.  6  2  0.0000 0.000000 2  1 (   1   6    )->(   7   8       )
 114     42.849 345598.  6  1  0.0000 0.000000 2  1 (   1   6    )->(   7  12       )
 115     42.849 345601.  6  2  0.0000 0.000000 2  1 (   1   6    )->(   7   9       )
 116     44.547 359294.  2  1  0.0000 0.000000 3  1 (   1   6   6)->(   7   7   8   )
 117     45.229 364799.  6  2  0.0000 0.000000 2  1 (   1   6    )->(   7  10       )
 118     45.286 365260.  2  1  0.0000 0.000000 3  1 (   1   6   6)->(   7   7   9   )
 119     45.629 368024.  6  2  0.0000 0.000000 2  1 (   1   6    )->(   7  11       )
 120     47.667 384458.  2  1  0.0000 0.000000 3  1 (   1   6   6)->(   7   7  10   )
 121     48.067 387684.  2  1  0.0000 0.000000 3  1 (   1   6   6)->(   7   7  11   )
 122     49.360 398117.  6  2  0.0000 0.000000 2  1 (   1   6    )->(   7  12       )
 123     51.797 417776.  2  1  0.0000 0.000000 3  1 (   1   6   6)->(   7   7  12   )
 
 COSMO corrections to state energies
 State    Diag E (eV)   Uncorr E (eV)   Final E (eV)
     1       -1.22778       -1.22778       -1.22778
     2        6.58326        6.58326        6.58326
     3        7.13798        7.13798        7.13798
     4        7.91754        7.91754        7.91754
     5        7.91778        7.91778        7.91778
     6        9.97181        9.97181        9.97181
     7       10.04205       10.04205       10.04205
     8       10.07412       10.07412       10.07412
     9       10.29243       10.29243       10.29243
    10       10.91066       10.91066       10.91066
    11       11.89455       11.89455       11.89455
    12       12.02020       12.02020       12.02020
    13       12.94440       12.94440       12.94440
    14       13.26925       13.26925       13.26925
    15       13.68286       13.68286       13.68286
    16       13.90902       13.90902       13.90902
    17       14.23227       14.23227       14.23227
    18       14.48932       14.48932       14.48932
    19       14.86127       14.86127       14.86127
    20       15.00683       15.00683       15.00683
    21       15.10097       15.10097       15.10097
    22       15.32472       15.32472       15.32472
    23       15.56721       15.56721       15.56721
    24       15.96833       15.96833       15.96833
    25       15.97816       15.97816       15.97816
    26       16.25956       16.25956       16.25956
    27       16.48390       16.48390       16.48390
    28       16.55020       16.55020       16.55020
    29       16.65050       16.65050       16.65050
    30       16.84477       16.84477       16.84477
    31       16.85067       16.85067       16.85067
    32       17.15611       17.15611       17.15611
    33       17.47526       17.47526       17.47526
    34       17.96068       17.96068       17.96068
    35       18.76859       18.76859       18.76859
    36       19.33159       19.33159       19.33159
    37       19.33272       19.33272       19.33272
    38       19.42089       19.42089       19.42089
    39       19.43724       19.43724       19.43724
    40       19.62544       19.62544       19.62544
    41       19.81320       19.81320       19.81320
    42       19.93674       19.93674       19.93674
    43       20.32463       20.32463       20.32463
    44       20.59998       20.59998       20.59998
    45       20.61486       20.61486       20.61486
    46       21.17920       21.17920       21.17920
    47       21.41183       21.41183       21.41183
    48       21.85707       21.85707       21.85707
    49       22.19047       22.19047       22.19047
    50       22.24354       22.24354       22.24354
    51       22.47725       22.47725       22.47725
    52       22.78261       22.78261       22.78261
    53       22.98356       22.98356       22.98356
    54       23.11505       23.11505       23.11505
    55       23.31453       23.31453       23.31453
    56       23.33925       23.33925       23.33925
    57       23.51832       23.51832       23.51832
    58       23.62217       23.62217       23.62217
    59       23.97880       23.97880       23.97880
    60       24.06027       24.06027       24.06027
    61       24.12009       24.12009       24.12009
    62       24.40991       24.40991       24.40991
    63       25.53012       25.53012       25.53012
    64       25.98975       25.98975       25.98975
    65       26.03384       26.03384       26.03384
    66       26.13008       26.13008       26.13008
    67       26.26918       26.26918       26.26918
    68       26.35359       26.35359       26.35359
    69       26.63647       26.63647       26.63647
    70       26.67532       26.67532       26.67532
    71       26.95891       26.95891       26.95891
    72       27.13673       27.13673       27.13673
    73       27.88638       27.88638       27.88638
    74       27.91620       27.91620       27.91620
    75       28.11069       28.11069       28.11069
    76       28.12023       28.12023       28.12023
    77       28.40669       28.40669       28.40669
    78       28.89034       28.89034       28.89034
    79       29.62396       29.62396       29.62396
    80       29.83025       29.83025       29.83025
    81       30.00393       30.00393       30.00393
    82       30.01174       30.01174       30.01174
    83       30.96046       30.96046       30.96046
    84       31.00480       31.00480       31.00480
    85       31.31306       31.31306       31.31306
    86       31.62401       31.62401       31.62401
    87       31.89631       31.89631       31.89631
    88       31.91520       31.91520       31.91520
    89       32.05097       32.05097       32.05097
    90       32.93137       32.93137       32.93137
    91       33.03513       33.03513       33.03513
    92       33.10031       33.10031       33.10031
    93       33.56976       33.56976       33.56976
    94       33.90552       33.90552       33.90552
    95       35.30213       35.30213       35.30213
    96       35.45766       35.45766       35.45766
    97       35.53602       35.53602       35.53602
    98       35.98146       35.98146       35.98146
    99       36.39462       36.39462       36.39462
   100       36.68235       36.68235       36.68235
   101       36.71960       36.71960       36.71960
   102       36.85897       36.85897       36.85897
   103       37.36843       37.36843       37.36843
   104       37.76012       37.76012       37.76012
   105       38.62707       38.62707       38.62707
   106       38.91343       38.91343       38.91343
   107       39.33603       39.33603       39.33603
   108       39.48804       39.48804       39.48804
   109       40.39808       40.39808       40.39808
   110       40.51565       40.51565       40.51565
   111       40.81938       40.81938       40.81938
   112       40.85195       40.85195       40.85195
   113       42.46994       42.46994       42.46994
   114       42.66301       42.66301       42.66301
   115       43.15066       43.15066       43.15066
   116       44.48956       44.48956       44.48956
   117       44.65387       44.65387       44.65387
   118       47.18331       47.18331       47.18331
   119       47.28511       47.28511       47.28511
   120       50.71679       50.71679       50.71679
   121       50.88624       50.88624       50.88624
   122       50.89073       50.89073       50.89073
   123       53.49757       53.49757       53.49757

 Depression of ground-state after CI=      -9903. cm**-1 Energy=  -378.9915513 eV
 Dipole moment=  0.000000 -0.000000 -0.000000 tot=  0.000000 Debyes


  CI trans.  energy frequency wavelength oscillator--------- polarization---------  dipole  ------ components-----
 st.  symm.    eV      cm - 1       nm      strength       x          y         z       moment     x       y       z 

   2      7.8110419    63000.    158.73  0.344443   1.000000   0.000000  -0.000000  0.000000   0.000   0.000   0.000
   3      8.3657632    67475.    148.20  0.000000                                   0.000000   0.000   0.000  -0.000
   4      9.1453241    73762.    135.57  0.078784  -0.000000   0.000000  -1.000000  0.000000   0.000  -0.000   0.000
   5      9.1455624    73764.    135.57  0.000000                                   0.000000  -0.000   0.000  -0.000
   6     11.1995884    90331.    110.70  0.000000                                   0.000000  -0.000   0.000  -0.000
   7     11.2698289    90898.    110.01  0.000000                                   0.000000  -0.000   0.000  -0.000
   8     11.3019012    91156.    109.70  0.000000                                   0.000000  -0.000   0.000   0.000
   9     11.5202070    92917.    107.62  0.000000                                   0.000000   0.000   0.000   0.000
  10     12.1384460    97903.    102.14  0.068917   0.000000   1.000000  -0.000000  0.000000  -0.000   0.000   0.000
  11     13.1223347   105839.     94.48  0.000000                                   0.000000   0.000   0.000   0.000
  12     13.2479851   106852.     93.59  0.000000                                   0.000000   0.000   0.000  -0.000
  13     14.1721786   114307.     87.48  0.000000                                   0.000000   0.000   0.000   0.000
  14     14.4970332   116927.     85.52  0.019656   1.000000   0.000000  -0.000000  0.000000  -0.000   0.000   0.000
  15     14.9106414   120263.     83.15  0.008160   0.000000  -0.000000   1.000000  0.000000  -0.000   0.000  -0.000
  16     15.1368005   122087.     81.91  0.000000                                   0.000000   0.000   0.000   0.000
  17     15.4600491   124694.     80.20  0.000000                                   0.000000  -0.000   0.000  -0.000
  18     15.7170981   126767.     78.88  0.466859   1.000000  -0.000000  -0.000000  0.000000  -0.000   0.000   0.000
  19     16.0890467   129767.     77.06  0.000151   0.000000  -1.000000   0.000000  0.000000   0.000   0.000   0.000
  20     16.2346090   130941.     76.37  0.000000                                   0.000000   0.000   0.000   0.000
  21     16.3287496   131701.     75.93  0.027799  -0.000000   0.000000  -1.000000  0.000000   0.000   0.000   0.000
  22     16.5524985   133505.     74.90  0.000000                                   0.000000   0.000   0.000  -0.000
  23     16.7949930   135461.     73.82  0.000000                                   0.000000  -0.000   0.000  -0.000
  24     17.1961099   138696.     72.10  0.090935  -0.000000  -1.000000   0.000000  0.000000  -0.000   0.000   0.000
  25     17.2059410   138776.     72.06  0.000000                                   0.000000   0.000   0.000  -0.000
  26     17.4873423   141045.     70.90  0.000000                                   0.000000  -0.000   0.000  -0.000
  27     17.7116837   142855.     70.00  0.000000                                   0.000000   0.000   0.000   0.000
  28     17.7779782   143389.     69.74  0.000000                                   0.000000  -0.000   0.000  -0.000
  29     17.8782848   144198.     69.35  0.004045  -1.000000   0.000000   0.000000  0.000000   0.000   0.000   0.000
  30     18.0725495   145765.     68.60  0.000000                                   0.000000   0.000   0.000  -0.000
  31     18.0784534   145813.     68.58  0.086443   0.000000  -1.000000  -0.000000  0.000000   0.000   0.000   0.000
  32     18.3838952   148276.     67.44  0.000000                                   0.000000  -0.000   0.000  -0.000
  33     18.7030398   150851.     66.29  0.777218  -0.000000  -1.000000  -0.000000  0.000000   0.000   0.000   0.000
  34     19.1884592   154766.     64.61  0.000706   1.000000  -0.000000   0.000000  0.000000   0.000   0.000   0.000
  35     19.9963723   161282.     62.00  0.014079  -0.000000   0.000000  -1.000000  0.000000   0.000   0.000  -0.000
  36     20.5593665   165823.     60.31  0.277862   0.000000   0.000000  -1.000000  0.000000   0.000   0.000   0.000
  37     20.5604994   165832.     60.30  0.000000                                   0.000000  -0.000   0.000  -0.000
  38     20.6486727   166543.     60.04  0.000000                                   0.000000  -0.000   0.000  -0.000
  39     20.6650181   166675.     60.00  0.216857  -1.000000   0.000000  -0.000000  0.000000   0.000   0.000   0.000
  40     20.8532224   168193.     59.46  0.000000                                   0.000000   0.000   0.000   0.000
  41     21.0409773   169707.     58.92  0.000000                                   0.000000  -0.000   0.000  -0.000
  42     21.1645201   170704.     58.58  0.001294   0.000000  -1.000000  -0.000000  0.000000   0.000   0.000  -0.000
  43     21.5524160   173832.     57.53  0.002287   0.000000   1.000000   0.000000  0.000000   0.000   0.000  -0.000
  44     21.8277662   176053.     56.80  0.000000                                   0.000000   0.000   0.000   0.000
  45     21.8426429   176173.     56.76  0.032170   1.000000   0.000000  -0.000000  0.000000   0.000   0.000  -0.000
  46     22.4069796   180725.     55.33  0.000000                                   0.000000   0.000   0.000   0.000
  47     22.6396089   182601.     54.76  0.008541   0.000000   1.000000   0.000000  0.000000  -0.000   0.000  -0.000
  48     23.0848558   186192.     53.71  0.000000                                   0.000000  -0.000   0.000  -0.000
  49     23.4182563   188881.     52.94  0.000000                                   0.000000   0.000   0.000  -0.000
  50     23.4713219   189309.     52.82  0.000000                                   0.000000   0.000  -0.000   0.000
  51     23.7050279   191194.     52.30  0.000000                                   0.000000  -0.000   0.000   0.000
  52     24.0103909   193657.     51.64  0.020209  -1.000000  -0.000000  -0.000000  0.000000   0.000  -0.000   0.000
  53     24.2113393   195278.     51.21  0.000542   0.000000   1.000000   0.000000  0.000000  -0.000   0.000  -0.000
  54     24.3428305   196339.     50.93  0.004665   1.000000   0.000000  -0.000000  0.000000  -0.000   0.000  -0.000
  55     24.5423163   197948.     50.52  0.000000                                   0.000000   0.000   0.000  -0.000
  56     24.5670294   198147.     50.47  0.000000                                   0.000000  -0.000   0.000  -0.000
  57     24.7461022   199591.     50.10  0.000046  -1.000000   0.000000   0.000000  0.000000  -0.000   0.000   0.000
  58     24.8499484   200429.     49.89  0.111343  -0.000000  -1.000000  -0.000000  0.000000  -0.000   0.000  -0.000
  59     25.2065826   203305.     49.19  0.000000                                   0.000000   0.000   0.000  -0.000
  60     25.2880560   203962.     49.03  0.000000                                   0.000000   0.000   0.000  -0.000
  61     25.3478687   204445.     48.91  0.000000                                   0.000000   0.000   0.000  -0.000
  62     25.6376890   206782.     48.36  0.000097  -1.000000   0.000000  -0.000000  0.000000   0.000   0.000  -0.000
  63     26.7579061   215818.     46.34  0.000000                                   0.000000  -0.000   0.000  -0.000
  64     27.2175288   219525.     45.55  0.104069   0.000000   1.000000   0.000000  0.000000  -0.000   0.000  -0.000
  65     27.2616201   219880.     45.48  0.000183  -1.000000  -0.000000   0.000000  0.000000  -0.000   0.000  -0.000
  66     27.3578577   220657.     45.32  0.000413  -1.000000   0.000000   0.000000  0.000000  -0.000   0.000  -0.000
  67     27.4969591   221778.     45.09  0.000000                                   0.000000   0.000   0.000  -0.000
  68     27.5813725   222459.     44.95  0.000000                                   0.000000   0.000   0.000  -0.000
  69     27.8642559   224741.     44.50  0.000000                                   0.000000   0.000  -0.000   0.000
  70     27.9030970   225054.     44.43  0.000141  -0.000000   1.000000   0.000000  0.000000   0.000   0.000  -0.000
  71     28.1866879   227342.     43.99  0.000000                                   0.000000  -0.000   0.000  -0.000
  72     28.3645083   228776.     43.71  0.000832  -0.000000   1.000000   0.000000  0.000000  -0.000   0.000   0.000
  73     29.1141579   234822.     42.59  0.000715  -1.000000   0.000000   0.000000  0.000000  -0.000  -0.000  -0.000
  74     29.1439788   235063.     42.54  0.000000                                   0.000000   0.000   0.000  -0.000
  75     29.3384732   236631.     42.26  0.000100   0.000000   1.000000   0.000000  0.000000   0.000   0.000  -0.000
  76     29.3480135   236708.     42.25  0.000000                                   0.000000   0.000  -0.000  -0.000
  77     29.6344759   239019.     41.84  0.003791   0.000000   1.000000  -0.000000  0.000000  -0.000   0.000  -0.000
  78     30.1181209   242920.     41.17  0.000000                                   0.000000   0.000   0.000  -0.000
  79     30.8517374   248837.     40.19  0.004565   1.000000   0.000000  -0.000000  0.000000   0.000   0.000  -0.000
  80     31.0580338   250501.     39.92  0.003226   0.000000   1.000000  -0.000000  0.000000  -0.000   0.000  -0.000
  81     31.2317102   251901.     39.70  0.000000                                   0.000000   0.000   0.000  -0.000
  82     31.2395174   251964.     39.69  0.000000                                   0.000000   0.000   0.000  -0.000
  83     32.1882384   259616.     38.52  0.003399   1.000000  -0.000000  -0.000000  0.000000   0.000   0.000  -0.000
  84     32.2325803   259974.     38.47  0.000000                                   0.000000  -0.000   0.000  -0.000
  85     32.5408463   262460.     38.10  0.005939   0.000000   1.000000   0.000000  0.000000  -0.000   0.000  -0.000
  86     32.8517962   264968.     37.74  0.000000                                   0.000000   0.000   0.000  -0.000
  87     33.1240902   267164.     37.43  0.002734   1.000000  -0.000000  -0.000000  0.000000  -0.000   0.000   0.000
  88     33.1429840   267317.     37.41  0.000000                                   0.000000  -0.000   0.000  -0.000
  89     33.2787524   268412.     37.26  0.000000                                   0.000000   0.000   0.000  -0.000
  90     34.1591544   275513.     36.30  0.000426   1.000000   0.000000  -0.000000  0.000000   0.000   0.000  -0.000
  91     34.2629079   276350.     36.19  0.007488   0.000000   1.000000  -0.000000  0.000000   0.000   0.000  -0.000
  92     34.3280962   276875.     36.12  0.000000                                   0.000000  -0.000   0.000  -0.000
  93     34.7975439   280662.     35.63  0.036372   1.000000   0.000000  -0.000000  0.000000  -0.000   0.000  -0.000
  94     35.1333022   283370.     35.29  0.000000                                   0.000000   0.000   0.000  -0.000
  95     36.5299142   294634.     33.94  0.001035  -0.000000   1.000000   0.000000  0.000000  -0.000  -0.000  -0.000
  96     36.6854425   295889.     33.80  0.000000                                   0.000000  -0.000   0.000  -0.000
  97     36.7638008   296521.     33.72  0.000158  -1.000000   0.000000   0.000000  0.000000   0.000   0.000  -0.000
  98     37.2092403   300114.     33.32  0.006813  -0.000000  -0.000000   1.000000  0.000000   0.000   0.000  -0.000
  99     37.6224010   303446.     32.95  0.046262   0.000000   1.000000   0.000000  0.000000  -0.000   0.000  -0.000
 100     37.9101274   305767.     32.70  0.000000                                   0.000000   0.000   0.000  -0.000
 101     37.9473817   306067.     32.67  0.000000                                   0.000000   0.000   0.000  -0.000
 102     38.0867487   307191.     32.55  0.000000                                   0.000000  -0.000   0.000   0.000
 103     38.5962083   311300.     32.12  0.001034  -1.000000   0.000000  -0.000000  0.000000   0.000   0.000  -0.000
 104     38.9879018   314459.     31.80  0.000000                                   0.000000  -0.000   0.000   0.000
 105     39.8548531   321452.     31.11  0.005328   1.000000  -0.000000  -0.000000  0.000000  -0.000  -0.000  -0.000
 106     40.1412083   323762.     30.89  0.003530   1.000000   0.000000  -0.000000  0.000000   0.000   0.000   0.000
 107     40.5638151   327170.     30.57  0.000000                                   0.000000  -0.000   0.000  -0.000
 108     40.7158230   328396.     30.45  0.000109   0.000000  -1.000000   0.000000  0.000000   0.000   0.000  -0.000
 109     41.6258585   335736.     29.79  0.000000                                   0.000000  -0.000   0.000  -0.000
 110     41.7434294   336684.     29.70  0.000000                                   0.000000   0.000   0.000  -0.000
 111     42.0471582   339134.     29.49  0.000294   0.000000  -1.000000  -0.000000  0.000000   0.000   0.000  -0.000
 112     42.0797275   339397.     29.46  0.065414  -1.000000  -0.000000   0.000000  0.000000   0.000   0.000  -0.000
 113     43.6977211   352447.     28.37  0.000000                                   0.000000   0.000   0.000  -0.000
 114     43.8907913   354004.     28.25  0.015320  -1.000000  -0.000000   0.000000  0.000000  -0.000   0.000  -0.000
 115     44.3784459   357937.     27.94  0.000000                                   0.000000   0.000   0.000  -0.000
 116     45.7173385   368736.     27.12  0.000000                                   0.000000  -0.000   0.000  -0.000
 117     45.8816536   370061.     27.02  0.000048   0.000000  -1.000000   0.000000  0.000000   0.000   0.000  -0.000
 118     48.4110959   390463.     25.61  0.000000                                   0.000000  -0.000   0.000  -0.000
 119     48.5128902   391284.     25.56  0.000274  -1.000000   0.000000   0.000000  0.000000   0.000   0.000  -0.000
 120     51.9445734   418962.     23.87  0.000046  -0.000000   1.000000  -0.000000  0.000000  -0.000  -0.000  -0.000
 121     52.1140241   420329.     23.79  0.000000                                   0.000000   0.000   0.000  -0.000
 122     52.1185089   420365.     23.79  0.000000                                   0.000000  -0.000   0.000  -0.000
 123     54.7253535   441391.     22.66  0.001258   1.000000  -0.000000  -0.000000  0.000000   0.000   0.000  -0.000

 Polarizability (au  ) xx=   18.56 xy=    0.00 yy=    8.14 xz=   -0.00 yz=   -0.00 zz=    3.96
 Polarizability (A**3) xx=    2.75 xy=    0.00 yy=    1.21 xz=   -0.00 yz=   -0.00 zz=    0.59


 Major CI contributions to CI states

State    1  0.0000     CI coeff  CI percent
    Config       1   0.97131841  0.94345945
    Config       8  -0.20552588  0.04224089
    Config      86   0.07199818  0.00518374
    Config     106   0.04046814  0.00163767
 Total coeff printed             0.99252174
  
State    2  7.8110     CI coeff  CI percent
    Config       4  -0.96570264  0.93258158
    Config      17   0.10083544  0.01016779
    Config      22   0.06211146  0.00385783
    Config      46   0.07332387  0.00537639
    Config      47  -0.15777217  0.02489206
    Config      58   0.05020910  0.00252095
    Config      92   0.04484440  0.00201102
    Config      93  -0.09173161  0.00841469
    Config      95  -0.04880732  0.00238215
    Config     112  -0.04319306  0.00186564
 Total coeff printed             0.99407011
  
State    3  8.3658     CI coeff  CI percent
    Config       2  -0.96247063  0.92634972
    Config      16   0.26541827  0.07044686
    Config      59  -0.04073029  0.00165896
 Total coeff printed             0.99845553
  
State    4  9.1453     CI coeff  CI percent
    Config       5  -0.93323694  0.87093118
    Config      11   0.34669170  0.12019514
    Config      34  -0.06471281  0.00418775
    Config      35   0.05956235  0.00354767
 Total coeff printed             0.99886174
  
State    5  9.1456     CI coeff  CI percent
    Config       3   0.98436242  0.96896937
    Config       7   0.07653925  0.00585826
    Config      37  -0.15467893  0.02392557
 Total coeff printed             0.99875320
  
State    6 11.1996     CI coeff  CI percent
    Config       6   0.99319650  0.98643929
    Config      13   0.07402024  0.00547900
    Config      59   0.08069326  0.00651140
 Total coeff printed             0.99842969
  
State    7 11.2698     CI coeff  CI percent
    Config       3   0.08474405  0.00718155
    Config       7  -0.95625836  0.91443005
    Config      24  -0.27997056  0.07838351
 Total coeff printed             0.99999512
  
State    8 11.3019     CI coeff  CI percent
    Config       1   0.18387117  0.03380861
    Config       8   0.95354697  0.90925183
    Config      50   0.08409301  0.00707163
    Config      57  -0.05486604  0.00301028
    Config      67   0.04221926  0.00178247
    Config      85  -0.07643156  0.00584178
    Config      86   0.16058148  0.02578641
    Config      90  -0.05365033  0.00287836
    Config     113   0.05482293  0.00300555
    Config     122   0.05004150  0.00250415
 Total coeff printed             0.99494108
  
State    9 11.5202     CI coeff  CI percent
    Config       9  -0.93931132  0.88230576
    Config      14   0.10360490  0.01073398
    Config      15  -0.10011497  0.01002301
    Config      23  -0.31134749  0.09693726
 Total coeff printed             1.00000000
  
State   10 12.1384     CI coeff  CI percent
    Config      10  -0.94664299  0.89613294
    Config      19   0.14685476  0.02156632
    Config      28  -0.06548890  0.00428880
    Config      33   0.05694919  0.00324321
    Config      36   0.04168342  0.00173751
    Config      44  -0.12501844  0.01562961
    Config      51  -0.20057490  0.04023029
    Config      66  -0.11463710  0.01314166
    Config      70   0.04314859  0.00186180
 Total coeff printed             0.99783214
  
State   11 13.1223     CI coeff  CI percent
    Config      12  -0.92284140  0.85163626
    Config      18  -0.24729178  0.06115323
    Config      29   0.06801195  0.00462562
    Config      32  -0.04607322  0.00212274
    Config      41   0.16039109  0.02572530
    Config      56   0.18681574  0.03490012
    Config      68  -0.05483063  0.00300640
    Config      74   0.11084326  0.01228623
 Total coeff printed             0.99545590
  
State   12 13.2480     CI coeff  CI percent
    Config       9   0.14409032  0.02076202
    Config      14   0.73765446  0.54413410
    Config      15  -0.65923218  0.43458707
 Total coeff printed             0.99948320
  
State   13 14.1722     CI coeff  CI percent
    Config       2  -0.12262657  0.01503728
    Config       6  -0.08274825  0.00684727
    Config      13   0.88823453  0.78896057
    Config      16  -0.43485904  0.18910239
 Total coeff printed             0.99994751
  
State   14 14.4970     CI coeff  CI percent
    Config       4  -0.08153129  0.00664735
    Config      17  -0.92265195  0.85128662
    Config      22  -0.19581986  0.03834542
    Config      31  -0.14130912  0.01996827
    Config      47  -0.09908437  0.00981771
    Config      55   0.12896572  0.01663216
    Config      61   0.21499691  0.04622367
    Config      72   0.04231193  0.00179030
    Config      87  -0.06569176  0.00431541
    Config     112  -0.04279450  0.00183137
 Total coeff printed             0.99685828
  
State   15 14.9106     CI coeff  CI percent
    Config       5   0.34451867  0.11869311
    Config      11   0.93049264  0.86581655
    Config      34   0.09518432  0.00906005
    Config      35   0.07326263  0.00536741
 Total coeff printed             0.99893713
  
State   16 15.1368     CI coeff  CI percent
    Config      21  -0.82064968  0.67346590
    Config      25   0.46211893  0.21355390
    Config      26  -0.19048718  0.03628537
    Config      45   0.04739442  0.00224623
    Config      50  -0.13063864  0.01706645
    Config      57   0.08238108  0.00678664
    Config      69   0.17880193  0.03197013
    Config      73   0.09113093  0.00830485
    Config      85  -0.04634050  0.00214744
    Config      86   0.05575249  0.00310834
    Config      90   0.05416061  0.00293337
 Total coeff printed             0.99786863
  
State   17 15.4600     CI coeff  CI percent
    Config      12  -0.23151229  0.05359794
    Config      18   0.93090172  0.86657802
    Config      38   0.08481808  0.00719411
    Config      41   0.08038528  0.00646179
    Config      42   0.07773420  0.00604261
    Config      43  -0.22231665  0.04942469
    Config      74   0.04504641  0.00202918
    Config      81  -0.06330519  0.00400755
 Total coeff printed             0.99533589
  
State   18 15.7171     CI coeff  CI percent
    Config      17  -0.20170993  0.04068689
    Config      22   0.92497371  0.85557636
    Config      30  -0.06561206  0.00430494
    Config      31  -0.05500030  0.00302503
    Config      47   0.08486399  0.00720190
    Config      58  -0.07219395  0.00521197
    Config      60  -0.18352578  0.03368171
    Config      61   0.04547740  0.00206819
    Config      72  -0.17111308  0.02927969
    Config      83   0.11794825  0.01391179
 Total coeff printed             0.99494848
  
State   19 16.0890     CI coeff  CI percent
    Config      10   0.13911160  0.01935204
    Config      19   0.93607317  0.87623298
    Config      28   0.04653776  0.00216576
    Config      39   0.09518148  0.00905951
    Config      40   0.27023355  0.07302617
    Config      44   0.05805848  0.00337079
    Config      71  -0.07767761  0.00603381
    Config      77   0.07446731  0.00554538
 Total coeff printed             0.99478644
  
State   20 16.2346     CI coeff  CI percent
    Config       2  -0.23764464  0.05647497
    Config      13  -0.45273911  0.20497270
    Config      16  -0.85813178  0.73639015
 Total coeff printed             0.99783782
  
State   21 16.3287     CI coeff  CI percent
    Config      20  -0.95695995  0.91577235
    Config      34   0.04655244  0.00216713
    Config      35  -0.28392455  0.08061315
 Total coeff printed             0.99855263
  
State   22 16.5525     CI coeff  CI percent
    Config      21   0.38654906  0.14942018
    Config      25   0.79187164  0.62706070
    Config      26   0.23930242  0.05726565
    Config      27   0.18931254  0.03583924
    Config      45  -0.14368284  0.02064476
    Config      49  -0.11301650  0.01277273
    Config      50   0.08123930  0.00659982
    Config      57   0.21026743  0.04421239
    Config      69  -0.08284687  0.00686360
    Config      73   0.12957623  0.01679000
    Config      85  -0.11712000  0.01371710
    Config      98   0.04153583  0.00172522
 Total coeff printed             0.99291139
  
State   23 16.7950     CI coeff  CI percent
    Config      14  -0.66712231  0.44505218
    Config      15  -0.74481636  0.55475141
 Total coeff printed             0.99980359
  
State   24 17.1961     CI coeff  CI percent
    Config      28  -0.88673209  0.78629380
    Config      33  -0.27965241  0.07820547
    Config      36  -0.23400255  0.05475719
    Config      40   0.04375950  0.00191489
    Config      64  -0.16064065  0.02580542
    Config      66   0.04146569  0.00171940
    Config      75   0.18340684  0.03363807
    Config      79   0.07067905  0.00499553
    Config      82   0.04878466  0.00237994
    Config      96  -0.05405735  0.00292220
 Total coeff printed             0.99263192
  
State   25 17.2059     CI coeff  CI percent
    Config      12   0.06733816  0.00453443
    Config      18  -0.05414025  0.00293117
    Config      29  -0.37010230  0.13697571
    Config      32  -0.80854477  0.65374465
    Config      41   0.36861249  0.13587517
    Config      43  -0.07443822  0.00554105
    Config      56  -0.13318270  0.01773763
    Config      62   0.05105501  0.00260661
    Config      65  -0.06938535  0.00481433
    Config      74   0.11244851  0.01264467
    Config      76   0.08124841  0.00660130
    Config      78   0.11570598  0.01338787
 Total coeff printed             0.99739460
  
State   26 17.4873     CI coeff  CI percent
    Config       8   0.04083844  0.00166778
    Config      21   0.21879343  0.04787056
    Config      25   0.18975644  0.03600751
    Config      26  -0.48995390  0.24005482
    Config      27  -0.76432181  0.58418782
    Config      45  -0.04176032  0.00174392
    Config      48   0.05714907  0.00326602
    Config      49  -0.05027911  0.00252799
    Config      50   0.06574594  0.00432253
    Config      53  -0.22738994  0.05170619
    Config      57   0.05935403  0.00352290
    Config      67  -0.13500097  0.01822526
 Total coeff printed             0.99510330
  
State   27 17.7117     CI coeff  CI percent
    Config      12   0.11049248  0.01220859
    Config      18  -0.04961707  0.00246185
    Config      29   0.87909521  0.77280840
    Config      32  -0.32641278  0.10654530
    Config      38   0.05488697  0.00301258
    Config      41   0.14923755  0.02227185
    Config      54   0.04184197  0.00175075
    Config      56  -0.06970858  0.00485929
    Config      62  -0.18743645  0.03513242
    Config      76  -0.17373336  0.03018328
    Config      78   0.04768792  0.00227414
    Config      99  -0.05382013  0.00289661
 Total coeff printed             0.99640505
  
State   28 17.7780     CI coeff  CI percent
    Config       9  -0.31120099  0.09684605
    Config      23   0.94996615  0.90243569
 Total coeff printed             0.99928175
  
State   29 17.8783     CI coeff  CI percent
    Config      17   0.09640432  0.00929379
    Config      22  -0.05995525  0.00359463
    Config      30  -0.79903286  0.63845351
    Config      31  -0.49085125  0.24093495
    Config      52  -0.27896426  0.07782106
    Config      63   0.15321566  0.02347504
    Config      88  -0.04984569  0.00248459
    Config     108  -0.04485035  0.00201155
 Total coeff printed             0.99806913
  
State   30 18.0725     CI coeff  CI percent
    Config       7   0.28228116  0.07968265
    Config      24  -0.95868927  0.91908512
 Total coeff printed             0.99876778
  
State   31 18.0785     CI coeff  CI percent
    Config      19  -0.07184507  0.00516171
    Config      28  -0.10240651  0.01048709
    Config      33   0.75253817  0.56631370
    Config      36  -0.43088327  0.18566039
    Config      44   0.40717471  0.16579124
    Config      51  -0.15926087  0.02536402
    Config      66   0.10047134  0.01009449
    Config      79  -0.12615688  0.01591556
    Config      89  -0.11243108  0.01264075
 Total coeff printed             0.99742897
  
State   32 18.3839     CI coeff  CI percent
    Config      21  -0.17314869  0.02998047
    Config      26   0.80319742  0.64512609
    Config      27  -0.54488839  0.29690336
    Config      45   0.05436915  0.00295600
    Config      50  -0.05828037  0.00339660
    Config      53  -0.11678284  0.01363823
    Config      67   0.05081217  0.00258188
 Total coeff printed             0.99458263
  
State   33 18.7030     CI coeff  CI percent
    Config      10   0.10284003  0.01057607
    Config      19   0.06444453  0.00415310
    Config      28  -0.34210795  0.11703785
    Config      33   0.49519614  0.24521922
    Config      36   0.68466801  0.46877028
    Config      40  -0.10402617  0.01082144
    Config      44  -0.21995943  0.04838215
    Config      51   0.14815499  0.02194990
    Config      64  -0.09798247  0.00960056
    Config      66  -0.11821233  0.01397416
    Config      70  -0.08773277  0.00769704
    Config      75   0.05526637  0.00305437
    Config      79  -0.14533049  0.02112095
    Config      82  -0.11626960  0.01351862
 Total coeff printed             0.99587572
  
State   34 19.1885     CI coeff  CI percent
    Config      17   0.11330333  0.01283765
    Config      30   0.51030772  0.26041397
    Config      31  -0.83508600  0.69736863
    Config      46   0.04239599  0.00179742
    Config      47   0.06040352  0.00364859
    Config      52   0.10307084  0.01062360
    Config      55  -0.05754506  0.00331143
    Config      63   0.07460422  0.00556579
    Config      88  -0.04874311  0.00237589
 Total coeff printed             0.99794296
  
State   35 19.9964     CI coeff  CI percent
    Config       5   0.07971701  0.00635480
    Config      11   0.09301063  0.00865098
    Config      20   0.04384315  0.00192222
    Config      34  -0.94236801  0.88805747
    Config      35  -0.30386729  0.09233533
    Config     101   0.05176101  0.00267920
 Total coeff printed             1.00000000
  
State   36 20.5594     CI coeff  CI percent
    Config       5  -0.05262127  0.00276900
    Config      11   0.06504920  0.00423140
    Config      20   0.28489483  0.08116506
    Config      34   0.31026951  0.09626717
    Config      35  -0.89658812  0.80387025
    Config     101   0.10815321  0.01169712
 Total coeff printed             1.00000000
  
State   37 20.5605     CI coeff  CI percent
    Config      18  -0.15025568  0.02257677
    Config      29  -0.04503782  0.00202841
    Config      32  -0.09854979  0.00971206
    Config      38   0.79009640  0.62425233
    Config      41  -0.29631503  0.08780260
    Config      42   0.31986660  0.10231464
    Config      43  -0.29568246  0.08742811
    Config      54   0.05443770  0.00296346
    Config      56   0.16464018  0.02710639
    Config      74  -0.05033572  0.00253368
    Config      78   0.12945621  0.01675891
    Config      81  -0.10889473  0.01185806
 Total coeff printed             0.99733543
  
State   38 20.6487     CI coeff  CI percent
    Config      25  -0.08494870  0.00721628
    Config      45  -0.68651327  0.47130047
    Config      49   0.47811972  0.22859847
    Config      50  -0.28297122  0.08007271
    Config      57   0.34664904  0.12016556
    Config      69  -0.10048187  0.01009661
    Config      73  -0.19288904  0.03720618
    Config      85  -0.14572259  0.02123507
    Config      86   0.04637541  0.00215068
    Config      90   0.05486856  0.00301056
    Config      91   0.07776828  0.00604791
    Config      94  -0.07575247  0.00573844
 Total coeff printed             0.99283892
  
State   39 20.6650     CI coeff  CI percent
    Config      31  -0.04827431  0.00233041
    Config      46  -0.75593254  0.57143400
    Config      47  -0.43815680  0.19198138
    Config      58   0.10353312  0.01071911
    Config      60  -0.35290271  0.12454032
    Config      72   0.19550891  0.03822374
    Config      83   0.18187043  0.03307685
    Config      92   0.08758318  0.00767081
    Config      93   0.11023558  0.01215188
 Total coeff printed             0.99212850
  
State   40 20.8532     CI coeff  CI percent
    Config       3  -0.15346561  0.02355169
    Config      37  -0.98748909  0.97513471
 Total coeff printed             0.99868640
  
State   41 21.0410     CI coeff  CI percent
    Config      12  -0.04969248  0.00246934
    Config      32  -0.30868985  0.09528942
    Config      38  -0.49207831  0.24214106
    Config      41  -0.63690058  0.40564235
    Config      42   0.07214739  0.00520525
    Config      43  -0.18336801  0.03362383
    Config      54   0.10276491  0.01056063
    Config      56   0.33144011  0.10985254
    Config      74  -0.07774876  0.00604487
    Config      78   0.28399435  0.08065279
    Config      81   0.04386065  0.00192376
 Total coeff printed             0.99340584
  
State   42 21.1645     CI coeff  CI percent
    Config      19  -0.17506504  0.03064777
    Config      33   0.08220171  0.00675712
    Config      36  -0.08161368  0.00666079
    Config      39   0.85242380  0.72662633
    Config      40   0.33863425  0.11467316
    Config      44  -0.20100875  0.04040452
    Config      51   0.19400413  0.03763760
    Config      66  -0.07360917  0.00541831
    Config      77   0.12624502  0.01593780
    Config      82   0.09747782  0.00950193
 Total coeff printed             0.99426534
  
State   43 21.5524     CI coeff  CI percent
[...]
    Config      45   0.16247075  0.02639674
    Config      49  -0.16396247  0.02688369
    Config      50  -0.11138923  0.01240756
    Config      57   0.22174168  0.04916937
    Config      69   0.10652630  0.01134785
    Config      73   0.18175180  0.03303372
    Config      85  -0.20517709  0.04209764
    Config      86  -0.14353088  0.02060111
    Config      90   0.51250801  0.26266447
    Config      91   0.39384768  0.15511599
    Config      94  -0.47022961  0.22111588
    Config      98  -0.25165072  0.06332809
    Config     109   0.14425615  0.02080984
    Config     113  -0.11993260  0.01438383
    Config     118   0.15450965  0.02387323
    Config     122   0.04150742  0.00172287
 Total coeff printed             0.99803080
  
State   97 36.7638     CI coeff  CI percent
    Config       4   0.05933687  0.00352086
    Config      22   0.12329669  0.01520207
    Config      46  -0.16271029  0.02647464
    Config      47  -0.10312833  0.01063545
    Config      55   0.05823382  0.00339118
    Config      58   0.13781066  0.01899178
    Config      60   0.21291444  0.04533256
    Config      61   0.06725398  0.00452310
    Config      72   0.26949245  0.07262618
    Config      83  -0.38552590  0.14863022
    Config      87  -0.21091932  0.04448696
    Config      88   0.04322469  0.00186837
    Config      92  -0.39982548  0.15986041
    Config      93  -0.28627128  0.08195124
    Config     100  -0.51656306  0.26683740
    Config     104  -0.21170376  0.04481848
    Config     108  -0.10165114  0.01033295
    Config     112  -0.04957714  0.00245789
    Config     115   0.18194575  0.03310426
    Config     116   0.05361823  0.00287491
 Total coeff printed             0.99792093
  
State   98 37.2092     CI coeff  CI percent
    Config      35  -0.11944112  0.01426618
    Config     101  -0.99186103  0.98378830
 Total coeff printed             0.99805448
  
State   99 37.6224     CI coeff  CI percent
    Config      28   0.04890768  0.00239196
    Config      36  -0.04168381  0.00173754
    Config      70  -0.04239404  0.00179725
    Config      77   0.08929388  0.00797340
    Config      96  -0.22647882  0.05129266
    Config     103   0.88783359  0.78824849
    Config     105   0.24701584  0.06101682
    Config     111  -0.11052940  0.01221675
    Config     119  -0.11353439  0.01289006
    Config     120  -0.23735505  0.05633742
 Total coeff printed             0.99590235
  
State  100 37.9101     CI coeff  CI percent
    Config      12   0.05949732  0.00353993
    Config      54   0.17312942  0.02997380
    Config      56   0.08780424  0.00770958
    Config      62  -0.04297825  0.00184713
    Config      65   0.05234386  0.00273988
    Config      68  -0.17519615  0.03069369
    Config      74   0.17082737  0.02918199
    Config      78   0.06859280  0.00470497
    Config      81  -0.06784712  0.00460323
    Config      97  -0.53317086  0.28427116
    Config      99   0.10713772  0.01147849
    Config     102   0.23876032  0.05700649
    Config     107  -0.69469116  0.48259581
    Config     110   0.10946127  0.01198177
    Config     117   0.07602772  0.00578021
    Config     121   0.17399203  0.03027323
 Total coeff printed             0.99838137
  
State  101 37.9474     CI coeff  CI percent
    Config      32  -0.06392025  0.00408580
    Config      41  -0.05580500  0.00311420
    Config      54  -0.20998870  0.04409525
    Config      56  -0.09380386  0.00879916
    Config      68   0.22069095  0.04870450
    Config      74  -0.17799937  0.03168378
    Config      78  -0.11307425  0.01278579
    Config      81  -0.05394574  0.00291014
    Config      97   0.67299162  0.45291772
    Config      99   0.13881624  0.01926995
    Config     102   0.16076467  0.02584528
    Config     107  -0.55475510  0.30775322
    Config     110   0.08510426  0.00724274
    Config     117   0.08251544  0.00680880
    Config     121   0.14089828  0.01985233
 Total coeff printed             0.99586865
  
State  102 38.0867     CI coeff  CI percent
    Config       1  -0.04814087  0.00231754
    Config       8  -0.07307544  0.00534002
    Config      25  -0.09372188  0.00878379
    Config      45   0.21359243  0.04562173
    Config      49   0.12332658  0.01520945
    Config      50   0.07101457  0.00504307
    Config      57   0.15354632  0.02357647
    Config      73   0.15169750  0.02301213
    Config      85  -0.49802750  0.24803139
    Config      86   0.21121371  0.04461123
    Config      90  -0.29357879  0.08618851
    Config      91   0.57399987  0.32947585
    Config      94   0.34132504  0.11650278
    Config      98   0.11012675  0.01212790
    Config     106  -0.08231715  0.00677611
    Config     109  -0.13881719  0.01927021
    Config     118  -0.04761998  0.00226766
    Config     122  -0.06212387  0.00385938
 Total coeff printed             0.99801522
  
State  103 38.5962     CI coeff  CI percent
    Config       4   0.10410311  0.01083746
    Config      22  -0.05062831  0.00256323
    Config      46   0.21622242  0.04675214
    Config      47  -0.13205967  0.01743976
    Config      58   0.10315889  0.01064176
    Config      60  -0.14996752  0.02249026
    Config      61   0.05746148  0.00330182
    Config      72  -0.07605511  0.00578438
    Config      83   0.32896238  0.10821625
    Config      87  -0.19504034  0.03804074
    Config      88   0.04009284  0.00160744
    Config      92   0.58966401  0.34770364
    Config      93  -0.37908422  0.14370485
    Config     100  -0.33673056  0.11338747
    Config     104  -0.15564810  0.02422633
    Config     108  -0.20622489  0.04252870
    Config     115   0.16119493  0.02598380
    Config     116   0.17659981  0.03118749
    Config     123   0.04405323  0.00194069
 Total coeff printed             0.99833819
  
State  104 38.9879     CI coeff  CI percent
    Config      48  -0.04313887  0.00186096
    Config      67   0.10464201  0.01094995
    Config      91   0.05408443  0.00292513
    Config      94   0.16568860  0.02745271
    Config      98  -0.18752590  0.03516596
    Config     106   0.95275448  0.90774109
    Config     109  -0.04875380  0.00237693
    Config     114   0.05431370  0.00294998
 Total coeff printed             0.99142272
  
State  105 39.8549     CI coeff  CI percent
    Config       4  -0.04447364  0.00197791
    Config      47   0.15972157  0.02551098
    Config      55   0.06236647  0.00388958
    Config      58   0.14824475  0.02197650
    Config      60   0.04176462  0.00174428
    Config      83   0.06979646  0.00487155
    Config      87  -0.19872976  0.03949352
    Config      93   0.25968403  0.06743579
    Config      95   0.11216030  0.01257993
    Config     100  -0.33376824  0.11140124
    Config     104   0.71502911  0.51126663
    Config     108  -0.30187279  0.09112718
    Config     112   0.28461082  0.08100332
    Config     115   0.07879185  0.00620816
    Config     116  -0.13107754  0.01718132
 Total coeff printed             0.99766789
  
State  106 40.1412     CI coeff  CI percent
    Config      63   0.08900970  0.00792273
    Config      83   0.05103860  0.00260494
    Config      87  -0.07507927  0.00563690
    Config      88  -0.10045030  0.01009026
    Config      92   0.09849416  0.00970110
    Config      95  -0.10226245  0.01045761
    Config     100  -0.31168924  0.09715018
    Config     104   0.15958604  0.02546771
    Config     108   0.89663940  0.80396221
    Config     112   0.13946100  0.01944937
    Config     115   0.04057034  0.00164595
 Total coeff printed             0.99408896
  
State  107 40.5638     CI coeff  CI percent
    Config      29   0.08357889  0.00698543
    Config      62   0.14217858  0.02021475
    Config      65  -0.24060470  0.05789062
    Config      74   0.05482458  0.00300573
    Config      76   0.15435776  0.02382632
    Config      78   0.04789999  0.00229441
    Config      81  -0.04052404  0.00164220
    Config      99   0.55509631  0.30813192
    Config     102  -0.63561223  0.40400290
    Config     107  -0.10552311  0.01113513
    Config     110  -0.28350892  0.08037731
    Config     117   0.26778856  0.07171072
    Config     121   0.07806644  0.00609437
 Total coeff printed             0.99731180
  
State  108 40.7158     CI coeff  CI percent
    Config      28  -0.07462941  0.00556955
    Config      64   0.15102147  0.02280748
    Config      70  -0.24754005  0.06127608
    Config      75  -0.13687825  0.01873566
    Config      82  -0.06169624  0.00380643
    Config      96   0.49601533  0.24603121
    Config     103  -0.05987408  0.00358491
    Config     105   0.69573049  0.48404091
    Config     111  -0.26615426  0.07083809
    Config     119   0.27798331  0.07727472
    Config     120   0.04506068  0.00203046
 Total coeff printed             0.99599549
  
State  109 41.6259     CI coeff  CI percent
    Config      62  -0.04021145  0.00161696
    Config      81  -0.11353369  0.01288990
    Config      99  -0.11577664  0.01340423
    Config     102   0.27712896  0.07680046
    Config     107  -0.07673195  0.00588779
    Config     110  -0.93879456  0.88133523
    Config     117  -0.06246732  0.00390217
 Total coeff printed             0.99583674
  
State  110 41.7434     CI coeff  CI percent
    Config      80  -0.21846600  0.04772739
    Config      85  -0.04139881  0.00171386
    Config      86  -0.11644033  0.01355835
    Config      90  -0.20297312  0.04119809
    Config      91   0.07143110  0.00510240
    Config      94   0.07448359  0.00554781
    Config     109   0.79419060  0.63073870
    Config     113   0.37774765  0.14269328
    Config     114   0.17321495  0.03000342
    Config     118   0.15520642  0.02408903
    Config     122  -0.23064846  0.05319871
 Total coeff printed             0.99557104
  
State  111 42.0472     CI coeff  CI percent
    Config      77  -0.10581073  0.01119591
    Config      96  -0.08979969  0.00806398
    Config     103  -0.06729620  0.00452878
    Config     105  -0.26094199  0.06809072
    Config     111  -0.94860153  0.89984487
    Config     119  -0.06281130  0.00394526
 Total coeff printed             0.99566953
  
State  112 42.0797     CI coeff  CI percent
    Config      83   0.04861152  0.00236308
    Config      87  -0.04212797  0.00177477
    Config      88   0.07670309  0.00588336
    Config      93   0.10784791  0.01163117
    Config      95  -0.12440363  0.01547626
    Config     104   0.32428821  0.10516284
    Config     108   0.05617903  0.00315608
    Config     112  -0.81415515  0.66284861
    Config     115   0.34699897  0.12040828
    Config     116   0.14919267  0.02225845
    Config     123   0.20064438  0.04025817
 Total coeff printed             0.99122108
  
State  113 43.6977     CI coeff  CI percent
    Config       1   0.04585222  0.00210243
    Config       8   0.06516835  0.00424691
    Config      49   0.09722486  0.00945267
    Config      57   0.04010100  0.00160809
    Config      73  -0.05279328  0.00278713
    Config      80  -0.12498657  0.01562164
    Config      85   0.08299812  0.00688869
    Config      86  -0.17784944  0.03163042
    Config      91   0.06155500  0.00378902
    Config      94   0.19766097  0.03906986
    Config     106  -0.05126480  0.00262808
    Config     109   0.32173717  0.10351480
    Config     113  -0.70821983  0.50157533
    Config     114   0.26100838  0.06812537
    Config     118  -0.43596058  0.19006163
    Config     122   0.12001906  0.01440458
 Total coeff printed             0.99750666
  
State  114 43.8908     CI coeff  CI percent
    Config       4   0.06250075  0.00390634
    Config      47  -0.04653054  0.00216509
    Config      55   0.06032513  0.00363912
    Config      58   0.12176879  0.01482764
    Config      60  -0.04032315  0.00162596
    Config      88   0.04239593  0.00179741
    Config      92   0.08258935  0.00682100
    Config      93  -0.08197699  0.00672023
    Config      95  -0.06085933  0.00370386
    Config     100  -0.22922229  0.05254286
    Config     112  -0.31547927  0.09952717
    Config     115  -0.72459819  0.52504254
    Config     116  -0.43822578  0.19204183
    Config     123   0.27995552  0.07837509
 Total coeff printed             0.99273614
  
State  115 44.3784     CI coeff  CI percent
    Config      67   0.04391911  0.00192889
    Config      86  -0.05965052  0.00355818
    Config      94   0.06530290  0.00426447
    Config     106   0.04905336  0.00240623
    Config     109   0.25683326  0.06596332
    Config     113  -0.13579734  0.01844092
    Config     114  -0.94322347  0.88967052
    Config     118  -0.09294671  0.00863909
 Total coeff printed             0.99487163
  
State  116 45.7173     CI coeff  CI percent
    Config      62   0.05325368  0.00283595
    Config      65  -0.10824368  0.01171669
    Config     102  -0.20479865  0.04194249
    Config     107  -0.04024068  0.00161931
    Config     117  -0.80000471  0.64000754
    Config     121   0.54573450  0.29782614
 Total coeff printed             0.99594813
  
State  117 45.8817     CI coeff  CI percent
    Config      64  -0.04695715  0.00220497
    Config      70   0.10841675  0.01175419
    Config     105  -0.21508085  0.04625977
    Config     119   0.77050634  0.59368002
    Config     120  -0.58441098  0.34153619
 Total coeff printed             0.99543514
  
State  118 48.4111     CI coeff  CI percent
    Config       8   0.05108117  0.00260929
    Config      49   0.04381102  0.00191941
    Config      69  -0.05197858  0.00270177
    Config      85   0.05009902  0.00250991
    Config      86  -0.08550467  0.00731105
    Config      90  -0.10539029  0.01110711
    Config      91  -0.04241450  0.00179899
    Config      94   0.07086301  0.00502157
    Config      98   0.23334610  0.05445040
    Config     113  -0.48211897  0.23243870
    Config     118   0.77935962  0.60740142
    Config     122  -0.25501684  0.06503359
 Total coeff printed             0.99430320
  
State  119 48.5129     CI coeff  CI percent
    Config       4  -0.06307519  0.00397848
    Config      47   0.04134366  0.00170930
    Config      58   0.05100050  0.00260105
    Config      87  -0.11905260  0.01417352
    Config      92  -0.07229740  0.00522691
    Config      93   0.12355562  0.01526599
    Config      95   0.25859807  0.06687296
    Config     100  -0.08046923  0.00647530
    Config     104   0.05804349  0.00336905
    Config     112  -0.05708335  0.00325851
    Config     115  -0.48103695  0.23139655
    Config     116   0.80020142  0.64032231
 Total coeff printed             0.99464992
  
State  120 51.9446     CI coeff  CI percent
    Config      70   0.06566551  0.00431196
    Config      96  -0.13986367  0.01956185
    Config     103   0.27163425  0.07378516
    Config     105  -0.11260625  0.01268017
    Config     119   0.54070451  0.29236136
    Config     120   0.77015204  0.59313417
 Total coeff printed             0.99583467
  
State  121 52.1140     CI coeff  CI percent
    Config      65   0.06158996  0.00379332
    Config      99  -0.14066937  0.01978787
    Config     102   0.10757329  0.01157201
    Config     107   0.27511901  0.07569047
    Config     117   0.49573216  0.24575037
    Config     121   0.79978801  0.63966086
 Total coeff printed             0.99625490
  
State  122 52.1185     CI coeff  CI percent
    Config       1  -0.05220758  0.00272563
    Config       8  -0.06520131  0.00425121
    Config      50   0.04815841  0.00231923
    Config      80  -0.08862458  0.00785432
    Config      85  -0.04845119  0.00234752
    Config      86   0.06676976  0.00445820
    Config      90  -0.08933593  0.00798091
    Config      98   0.12792363  0.01636445
    Config     109   0.15607598  0.02435971
    Config     118   0.29163527  0.08505113
    Config     122   0.91649662  0.83996606
 Total coeff printed             0.99767837
  
State  123 54.7254     CI coeff  CI percent
    Config       4  -0.07415873  0.00549952
    Config      61  -0.04643808  0.00215650
    Config      92  -0.04847890  0.00235020
    Config      93   0.07768922  0.00603562
    Config     100   0.05345428  0.00285736
    Config     104  -0.11563878  0.01337233
    Config     112   0.26612998  0.07082517
    Config     115   0.13543153  0.01834170
    Config     116   0.09267754  0.00858913
    Config     123   0.93113851  0.86701892
 Total coeff printed             0.99704643
  

 -------------------------------------------------------------------------------
 1SCF INDO MRCI
 comment1
 comment2


     1SCF WAS SPECIFIED, SO BFGS WAS NOT USED                 
     SCF FIELD WAS ACHIEVED                                   


                              INDO CALCULATION
                                                       MOPAC v22.0.6 MacOS
                                                       Wed Jul 12 16:26:02 2023


          COSMO AREA              =         71.45 SQUARE ANGSTROMS
          COSMO VOLUME            =         53.18 CUBIC ANGSTROMS

          IONIZATION POTENTIAL    =          9.985662 EV
          HOMO LUMO ENERGIES (EV) =         -9.986  1.352
          NO. OF FILLED LEVELS    =          6
          MOLECULAR WEIGHT        =         28.0536         POINT GROUP:  D2h 

          MOLECULAR DIMENSIONS (Angstroms)

            Atom       Atom       Distance
            H     5    H     4     3.08402
            H     6    H     3     2.96729
            C     1    C     2     0.00000


          SCF CALCULATIONS        =          1

          WALL-CLOCK TIME         =      0.352 SECONDS
          COMPUTATION TIME        =      0.910 SECONDS




   ATOM   CHEMICAL          X               Y               Z
  NUMBER   SYMBOL      (ANGSTROMS)     (ANGSTROMS)     (ANGSTROMS)

     1       C         -0.67000000  *   0.00000000  *   0.00000000  *
     2       C          0.67000000  *   0.00000000  *   0.00000000  *
     3       H         -1.23000000  *  -0.93000000  *   0.00000000  *
     4       H         -1.23000000  *   0.93000000  *   0.00000000  *
     5       H          1.23000000  *  -0.93000000  *   0.00000000  *
     6       H          1.23000000  *   0.93000000  *   0.00000000  *

                             CARTESIAN COORDINATES

   1    C       -0.670000000     0.000000000     0.000000000
   2    C        0.670000000     0.000000000     0.000000000
   3    H       -1.230000000    -0.930000000     0.000000000
   4    H       -1.230000000     0.930000000     0.000000000
   5    H        1.230000000    -0.930000000     0.000000000
   6    H        1.230000000     0.930000000     0.000000000


           Empirical Formula: C2 H4  =     6 atoms



      MOLECULAR POINT GROUP   :   D2h 


                  EIGENVALUES  
 -35.21189 -24.10511 -19.53313 -16.07585 -13.53540  -9.98566   1.35164   3.79059
   5.06352   7.33858   7.93711  10.85409


              NET ATOMIC CHARGES AND DIPOLE CONTRIBUTIONS

  ATOM NO.   TYPE          CHARGE      No. of ELECS.   s-Pop       p-Pop       
    1          C          -0.058134        4.0581     1.10971     2.94843
    2          C          -0.058134        4.0581     1.10971     2.94843
    3          H           0.029067        0.9709     0.97093
    4          H           0.029067        0.9709     0.97093
    5          H           0.029067        0.9709     0.97093
    6          H           0.029067        0.9709     0.97093
 DIPOLE           X         Y         Z       TOTAL
 POINT-CHG.     0.000     0.000     0.000     0.000
 HYBRID        -0.000    -0.000     0.000     0.000
 SUM            0.000     0.000     0.000     0.000


          ATOMIC ORBITAL ELECTRON POPULATIONS

     Atom    s        px        py        pz   
    1  C   1.10971   0.98732   0.96110   1.00000
    2  C   1.10971   0.98732   0.96110   1.00000
    3  H   0.97093
    4  H   0.97093
    5  H   0.97093
    6  H   0.97093

 **********************
 *                    *
 * JOB ENDED NORMALLY *
 *                    *
 **********************



 TOTAL JOB TIME:             0.41 SECONDS

 == MOPAC DONE ==
