 *******************************************************************************
 ** Cite this program as: MOPAC2016, Version: 21.329M, James J. P. Stewart,   **
 **                           web-site: HTTP://OpenMOPAC.net.                 **
 *******************************************************************************
 **                                                                           **
 **                                MOPAC2016                                  **
 **                                                                           **
 *******************************************************************************

                              PM7 CALCULATION RESULTS

 *******************************************************************************
 *  CALCULATION DONE:                                Thu Dec  9 02:43:49 2021  *
 *  MOZYME     - USE LOCALIZED M.O.s IN SOLVING THE SCF EQUATIONS
 *  T=         - A TIME OF 172800.0 SECONDS REQUESTED
 *  DUMP=N     - RESTART FILE WRITTEN EVERY 7200.0 SECONDS REQUESTED
 *  ALLVEC     - PRINT ALL EIGENVECTORS
 *******************************************************************************
MOZYME ALLVEC
 comment1
 comment2
   ATOM   CHEMICAL          X               Y               Z
  NUMBER   SYMBOL      (ANGSTROMS)     (ANGSTROMS)     (ANGSTROMS)

     1       H         -0.42216732  *  -0.00071395  *  -0.00131452  *
     2       C          0.60742800  *   0.00121115  *  -0.00266298  *
     3       C          1.82265400  *   0.00159233  *   0.00493786  *
     4       C          3.17967731  *   0.00115570  *   0.00352862  *
     5       C          4.40075631  *  -0.00296205  *  -0.00268502  *
     6       C          5.75224499  *  -0.00225247  *  -0.00360192  *
     7       C          6.97408815  *  -0.00101357  *   0.00137222  *
     8       C          8.32551577  *   0.00293214  *   0.00113083  *
     9       C          9.54749363  *  -0.00306728  *  -0.00373331  *
    10       C         10.90008716  *   0.00029715  *  -0.00267419  *
    11       C         12.12105528  *   0.00122943  *   0.00178979  *
    12       C         13.47703197  *   0.00238485  *   0.00472792  *
    13       C         14.69189272  *  -0.00067906  *  -0.00161486  *
    14       H         15.72242530  *  -0.00214550  *  -0.00046315  *



          CARTESIAN COORDINATES 

    NO.       ATOM           X           Y           Z

     1         H         -0.4222     -0.0007     -0.0013
     2         C          0.6074      0.0012     -0.0027
     3         C          1.8227      0.0016      0.0049
     4         C          3.1797      0.0012      0.0035
     5         C          4.4008     -0.0030     -0.0027
     6         C          5.7522     -0.0023     -0.0036
     7         C          6.9741     -0.0010      0.0014
     8         C          8.3255      0.0029      0.0011
     9         C          9.5475     -0.0031     -0.0037
    10         C         10.9001      0.0003     -0.0027
    11         C         12.1211      0.0012      0.0018
    12         C         13.4770      0.0024      0.0047
    13         C         14.6919     -0.0007     -0.0016
    14         H         15.7224     -0.0021     -0.0005

 General Reference for PM7:
 "Optimization of Parameters for Semiempirical Methods VI: More Modifications to the 
 NDDO Approximations and Re-optimization of Parameters", J. J. P. Stewart, J. Mol. Mod., 1:32, 19 (2013)
 https://link.springer.com/article/10.1007/s00894-012-1667-x

           Empirical Formula: C12 H2  =    14 atoms



      MOLECULAR POINT GROUP   :   D2h 

          NO CHARGES FOUND.

          COMPUTED CHARGE ON SYSTEM: +0

          Geometry optimization using EF

          DIAGONAL MATRIX USED AS START HESSIAN

 CYCLE:     1 TIME:   0.022 TIME LEFT:  2.00D  GRAD.:     4.100 HEAT:  332.6589
 CYCLE:     2 TIME:   0.035 TIME LEFT:  2.00D  GRAD.:     7.546 HEAT:  332.6585
 CYCLE:     3 TIME:   0.029 TIME LEFT:  2.00D  GRAD.:     7.087 HEAT:  332.6577
 CYCLE:     4 TIME:   0.012 TIME LEFT:  2.00D  GRAD.:     8.751 HEAT:  332.6565
 CYCLE:     5 TIME:   0.021 TIME LEFT:  2.00D  GRAD.:     7.557 HEAT:  332.6550
 CYCLE:     6 TIME:   0.008 TIME LEFT:  2.00D  GRAD.:     3.858 HEAT:  332.6485
 CYCLE:     7 TIME:   0.011 TIME LEFT:  2.00D  GRAD.:    10.913 HEAT:  332.6563
 CYCLE:     8 TIME:   0.009 TIME LEFT:  2.00D  GRAD.:     3.910 HEAT:  332.6480
 CYCLE:     9 TIME:   0.011 TIME LEFT:  2.00D  GRAD.:    10.060 HEAT:  332.6533
 CYCLE:    10 TIME:   0.008 TIME LEFT:  2.00D  GRAD.:     5.650 HEAT:  332.6488
 CYCLE:    11 TIME:   0.010 TIME LEFT:  2.00D  GRAD.:    10.353 HEAT:  332.6544
 CYCLE:    12 TIME:   0.008 TIME LEFT:  2.00D  GRAD.:     5.528 HEAT:  332.6493
 CYCLE:    13 TIME:   0.037 TIME LEFT:  2.00D  GRAD.:     6.200 HEAT:  332.6506
 CYCLE:    14 TIME:   0.010 TIME LEFT:  2.00D  GRAD.:     7.547 HEAT:  332.6559
 CYCLE:    15 TIME:   0.013 TIME LEFT:  2.00D  GRAD.:     4.144 HEAT:  332.6482
 CYCLE:    16 TIME:   0.021 TIME LEFT:  2.00D  GRAD.:    10.348 HEAT:  332.6574
 CYCLE:    17 TIME:   0.026 TIME LEFT:  2.00D  GRAD.:     8.859 HEAT:  332.6606
 CYCLE:    18 TIME:   0.021 TIME LEFT:  2.00D  GRAD.:     9.533 HEAT:  332.6585
 CYCLE:    19 TIME:   0.008 TIME LEFT:  2.00D  GRAD.:     2.757 HEAT:  332.6493
 CYCLE:    20 TIME:   0.021 TIME LEFT:  2.00D  GRAD.:     6.735 HEAT:  332.6545
 CYCLE:    21 TIME:   0.008 TIME LEFT:  2.00D  GRAD.:     2.660 HEAT:  332.6510
 CYCLE:    22 TIME:   0.012 TIME LEFT:  2.00D  GRAD.:     9.293 HEAT:  332.6580
 CYCLE:    23 TIME:   0.013 TIME LEFT:  2.00D  GRAD.:     1.405 HEAT:  332.6481
 CYCLE:    24 TIME:   0.009 TIME LEFT:  2.00D  GRAD.:     2.644 HEAT:  332.6492
 CYCLE:    25 TIME:   0.008 TIME LEFT:  2.00D  GRAD.:     2.040 HEAT:  332.6481


 HEAT OF FORMATION IS ESSENTIALLY STATIONARY

 -------------------------------------------------------------------------------
 MOZYME ALLVEC
 comment1
 comment2


     GEOMETRY OPTIMISED USING EIGENVECTOR FOLLOWING (EF).     
     SCF FIELD WAS ACHIEVED                                   


                              PM7 CALCULATION
                                                       MOPAC2016 (Version: 21.329M)
                                                       Thu Dec  9 02:43:49 2021




          FINAL HEAT OF FORMATION =        332.64736 KCAL/MOL =    1391.79654 KJ/MOL



          GRADIENT NORM           =          2.04012          =       0.54525 PER ATOM
          NO. OF FILLED LEVELS    =         25
          MOLECULAR WEIGHT        =        146.1478         POINT GROUP:  D2h 

          MOLECULAR DIMENSIONS (Angstroms)

            Atom       Atom       Distance
            H    14    H     1    16.14473
            C    10    C     7     0.00673
            C     9    C     5     0.00356


          SCF CALCULATIONS        =         36

          WALL-CLOCK TIME         =          0.410 SECONDS
          COMPUTATION TIME        =          1.517 SECONDS



       FINAL  POINT  AND  DERIVATIVES

             Cartesian Gradients         Cartesian Coordinates          |Gradient|
  Atom       X        Y        Z        X          Y          Z

    2  C    0.159    0.053   -0.406    0.60805   -0.00040    0.00179       0.440
    3  C    0.095   -0.031    0.577    1.82288    0.00018    0.00043       0.585
    4  C   -0.272   -0.069   -0.190    3.17923   -0.00038   -0.00121       0.339
    5  C   -0.192    0.088   -0.085    4.40019   -0.00140   -0.00002       0.227
    6  C    0.270   -0.363    0.496    5.75241   -0.00091   -0.00088       0.672
    7  C    0.223    0.475   -0.421    6.97429    0.00213   -0.00313       0.672
    8  C   -0.126   -0.439   -0.401    8.32573    0.00168   -0.00255       0.608
    9  C   -0.373    0.468    0.413    9.54758    0.00104    0.00152       0.727
   10  C    0.298   -0.387    0.403   10.89981   -0.00052    0.00251       0.634
   11  C    0.112    0.273   -0.603   12.12073    0.00061    0.00029       0.671
   12  C   -0.127   -0.103    0.698   13.47712   -0.00014    0.00047       0.717
   13  C   -0.039    0.028   -0.532   14.69198   -0.00117   -0.00013       0.535





   ATOM   CHEMICAL          X               Y               Z
  NUMBER   SYMBOL      (ANGSTROMS)     (ANGSTROMS)     (ANGSTROMS)

     1       H         -0.42237623  *  -0.00051692  *   0.00298452  *
     2       C          0.60805253  *  -0.00040463  *   0.00178782  *
     3       C          1.82287878  *   0.00018074  *   0.00042756  *
     4       C          3.17923166  *  -0.00037545  *  -0.00121488  *
     5       C          4.40018555  *  -0.00139807  *  -0.00001721  *
     6       C          5.75240609  *  -0.00090792  *  -0.00087735  *
     7       C          6.97429283  *   0.00212730  *  -0.00312633  *
     8       C          8.32573343  *   0.00168254  *  -0.00254674  *
     9       C          9.54758189  *   0.00103800  *   0.00151613  *
    10       C         10.89981293  *  -0.00052253  *   0.00250808  *
    11       C         12.12072998  *   0.00060521  *   0.00029361  *
    12       C         13.47712105  *  -0.00013970  *   0.00047299  *
    13       C         14.69197885  *  -0.00116535  *  -0.00012793  *
    14       H         15.72235708  *  -0.00196909  *   0.00013704  *

                             CARTESIAN COORDINATES

   1    H       -0.422376234    -0.000516925     0.002984524
   2    C        0.608052534    -0.000404630     0.001787818
   3    C        1.822878777     0.000180744     0.000427555
   4    C        3.179231658    -0.000375448    -0.001214876
   5    C        4.400185554    -0.001398069    -0.000017214
   6    C        5.752406087    -0.000907921    -0.000877348
   7    C        6.974292834     0.002127304    -0.003126333
   8    C        8.325733431     0.001682541    -0.002546744
   9    C        9.547581891     0.001037998     0.001516130
  10    C       10.899812929    -0.000522535     0.002508078
  11    C       12.120729980     0.000605207     0.000293614
  12    C       13.477121051    -0.000139699     0.000472990
  13    C       14.691978849    -0.001165347    -0.000127925
  14    H       15.722357077    -0.001969087     0.000137036


           Empirical Formula: C12 H2  =    14 atoms

          LOCALIZED MOLECULAR ORBITALS

           Occupied Set

  NUMBER OF CENTERS  LMO ENERGY     COMPOSITION OF ORBITALS 
                                    (AS PERCENT OF THE LMO)

   1    2.0080        -24.77717    C  9 49.99    C  8 49.81
   2    2.0084        -24.77636    C  6 49.99    C  7 49.80
   3    2.0080        -24.76299    C 11 49.97    C 10 49.83
   4    2.0080        -24.76297    C  4 49.97    C  5 49.83
   5    2.0109        -24.39351    C  3 50.84    C  2 48.87
   6    2.0117        -24.37066    C 12 50.84    C 13 48.85
   7    2.0108        -22.66955    C  7 49.87    C  8 49.86
   8    2.0104        -22.63849    C  5 49.98    C  6 49.76
   9    2.0108        -22.63756    C 10 49.97    C  9 49.76
  10    2.0096        -22.51940    C  4 50.12    C  3 49.64
  11    2.0100        -22.51286    C 11 50.13    C 12 49.62
  12    1.9317        -19.70806    C 13 59.74    H 14 40.10
  13    1.9321        -19.67568    C  2 59.71    H  1 40.13
  14    2.1795        -12.39551    C  8 48.04    C  9 47.73    C  7  1.08    C 10  1.02
  15    2.1790        -12.39519    C  8 48.04    C  9 47.74    C  7  1.08    C 10  1.02
  16    2.1791        -12.39288    C  7 48.01    C  6 47.77    C  8  1.06    C  5  1.03
  17    2.1791        -12.39287    C  7 48.01    C  6 47.77    C  8  1.06    C  5  1.03
  18    2.1669        -12.38841    C 10 48.67    C 11 47.38    C  9  1.10
  19    2.1669        -12.38840    C 10 48.67    C 11 47.38    C  9  1.10
  20    2.1674        -12.38731    C  5 48.65    C  4 47.39    C  6  1.09
  21    2.1674        -12.38709    C  5 48.65    C  4 47.39    C  6  1.08
  22    2.0877        -12.20967    C 12 50.25    C 13 47.58    C 11  1.06
  23    2.0877        -12.20966    C 12 50.25    C 13 47.58    C 11  1.06
  24    2.0877        -12.20872    C  3 50.25    C  2 47.58    C  4  1.06
  25    2.0872        -12.20856    C  3 50.25    C  2 47.59    C  4  1.06

           Virtual Set (NOT re-localized!)

  NUMBER OF CENTERS  LMO ENERGY     COMPOSITION OF ORBITALS 
                                    (AS PERCENT OF THE LMO)

  26    2.1849          0.97836    C  6 47.96    C  7 47.69    C  5  1.09    C  8  1.08
  27    2.1854          0.97841    C  6 47.96    C  7 47.68    C  5  1.09    C  8  1.08
  28    2.1849          0.98117    C  9 47.97    C  8 47.68    C 10  1.10    C  7  1.08
  29    2.1849          0.98124    C  9 47.97    C  8 47.68    C 10  1.10    C  7  1.08
  30    2.1733          0.99394    C 11 48.53    C 10 47.37    C  9  1.05    C 12  1.01
  31    2.1733          0.99394    C 11 48.53    C 10 47.37    C  9  1.05    C 12  1.01
  32    2.1738          0.99478    C  4 48.51    C  5 47.38    C  6  1.06    C  3  1.01
  33    2.1738          0.99483    C  4 48.51    C  5 47.38    C  6  1.06    C  3  1.01
  34    2.0764          1.05144    C 13 50.31    C 12 47.80
  35    2.0764          1.05144    C 13 50.31    C 12 47.80
  36    2.0764          1.05240    C  2 50.31    C  3 47.80
  37    2.0760          1.05251    C  2 50.31    C  3 47.81
  38    2.0129          4.44779    C  8 49.84    C  7 49.84
  39    2.0129          4.46110    C  6 49.95    C  5 49.73
  40    2.0129          4.46116    C  9 49.95    C 10 49.73
  41    2.0148          4.48209    C  3 50.05    C  4 49.58
  42    2.0148          4.48374    C 12 50.07    C 11 49.56
  43    1.9370          5.52710    H 14 59.58    C 13 40.16
  44    1.9372          5.52996    H  1 59.57    C  2 40.17
  45    2.0064          5.60087    C  7 50.01    C  6 49.83
  46    2.0064          5.60103    C  8 50.01    C  9 49.83
  47    2.0064          5.64045    C  5 49.99    C  4 49.85
  48    2.0060          5.64097    C 10 49.99    C 11 49.86
  49    2.0020          5.94562    C  2 50.98    C  3 48.95
  50    2.0020          5.94610    C 13 50.99    C 12 48.94


              NET ATOMIC CHARGES AND DIPOLE CONTRIBUTIONS

  ATOM NO.   TYPE          CHARGE      No. of ELECS.   s-Pop       p-Pop       
    1          H           0.192842        0.8072     0.80716
    2          C          -0.116369        4.1164     1.14297     2.97340
    3          C          -0.059497        4.0595     1.05970     2.99979
    4          C           0.013580        3.9864     1.06000     2.92642
    5          C          -0.027726        4.0277     1.05375     2.97398
    6          C           0.003375        3.9966     1.05517     2.94145
    7          C          -0.006200        4.0062     1.05364     2.95256
    8          C          -0.006195        4.0062     1.05363     2.95256
    9          C           0.003363        3.9966     1.05517     2.94147
   10          C          -0.027715        4.0277     1.05375     2.97397
   11          C           0.013575        3.9864     1.06000     2.92642
   12          C          -0.059487        4.0595     1.05972     2.99977
   13          C          -0.116374        4.1164     1.14296     2.97341
   14          H           0.192828        0.8072     0.80717
 DIPOLE           X         Y         Z       TOTAL
 POINT-CHG.    -0.000    -0.001     0.001     0.002
 HYBRID         0.000     0.000    -0.001     0.001
 SUM           -0.000    -0.001     0.001     0.001


          ATOMIC ORBITAL ELECTRON POPULATIONS

     Atom    s        px        py        pz   
    1  H   0.80716
    2  C   1.14297   1.03042   0.97149   0.97149
    3  C   1.05970   0.95389   1.02295   1.02295
    4  C   1.06000   0.94710   0.98966   0.98966
    5  C   1.05375   0.94721   1.01338   1.01338
    6  C   1.05517   0.94446   0.99849   0.99849
    7  C   1.05364   0.94452   1.00402   1.00402
    8  C   1.05363   0.94453   1.00402   1.00402
    9  C   1.05517   0.94447   0.99850   0.99850
   10  C   1.05375   0.94721   1.01338   1.01338
   11  C   1.06000   0.94710   0.98966   0.98966
   12  C   1.05972   0.95388   1.02294   1.02294
   13  C   1.14296   1.03041   0.97150   0.97150
   14  H   0.80717
 *******************************************************************************
 ** Cite this program as: MOPAC2016, Version: 21.329M, James J. P. Stewart,   **
 **                           web-site: HTTP://OpenMOPAC.net.                 **
 *******************************************************************************
 **                                                                           **
 **                                MOPAC2016                                  **
 **                                                                           **
 *******************************************************************************

                              PM7 CALCULATION RESULTS

 *******************************************************************************
 *  CALCULATION DONE:                                Thu Dec  9 02:43:49 2021  *
 *  MOZYME     - USE LOCALIZED M.O.s IN SOLVING THE SCF EQUATIONS
 *  RE-LOCAL   - RE-LOCALIZE LMOs AT END OF CALCULATION
 *  T=         - A TIME OF 172800.0 SECONDS REQUESTED
 *  DUMP=N     - RESTART FILE WRITTEN EVERY 7200.0 SECONDS REQUESTED
 *  ALLVEC     - PRINT ALL EIGENVECTORS
 *******************************************************************************
MOZYME RE-LOCAL ALLVEC
 comment1
 comment2
   ATOM   CHEMICAL          X               Y               Z
  NUMBER   SYMBOL      (ANGSTROMS)     (ANGSTROMS)     (ANGSTROMS)

     1       H         -0.42216732  *  -0.00071395  *  -0.00131452  *
     2       C          0.60742800  *   0.00121115  *  -0.00266298  *
     3       C          1.82265400  *   0.00159233  *   0.00493786  *
     4       C          3.17967731  *   0.00115570  *   0.00352862  *
     5       C          4.40075631  *  -0.00296205  *  -0.00268502  *
     6       C          5.75224499  *  -0.00225247  *  -0.00360192  *
     7       C          6.97408815  *  -0.00101357  *   0.00137222  *
     8       C          8.32551577  *   0.00293214  *   0.00113083  *
     9       C          9.54749363  *  -0.00306728  *  -0.00373331  *
    10       C         10.90008716  *   0.00029715  *  -0.00267419  *
    11       C         12.12105528  *   0.00122943  *   0.00178979  *
    12       C         13.47703197  *   0.00238485  *   0.00472792  *
    13       C         14.69189272  *  -0.00067906  *  -0.00161486  *
    14       H         15.72242530  *  -0.00214550  *  -0.00046315  *



          CARTESIAN COORDINATES 

    NO.       ATOM           X           Y           Z

     1         H         -0.4222     -0.0007     -0.0013
     2         C          0.6074      0.0012     -0.0027
     3         C          1.8227      0.0016      0.0049
     4         C          3.1797      0.0012      0.0035
     5         C          4.4008     -0.0030     -0.0027
     6         C          5.7522     -0.0023     -0.0036
     7         C          6.9741     -0.0010      0.0014
     8         C          8.3255      0.0029      0.0011
     9         C          9.5475     -0.0031     -0.0037
    10         C         10.9001      0.0003     -0.0027
    11         C         12.1211      0.0012      0.0018
    12         C         13.4770      0.0024      0.0047
    13         C         14.6919     -0.0007     -0.0016
    14         H         15.7224     -0.0021     -0.0005

 General Reference for PM7:
 "Optimization of Parameters for Semiempirical Methods VI: More Modifications to the 
 NDDO Approximations and Re-optimization of Parameters", J. J. P. Stewart, J. Mol. Mod., 1:32, 19 (2013)
 https://link.springer.com/article/10.1007/s00894-012-1667-x

           Empirical Formula: C12 H2  =    14 atoms



      MOLECULAR POINT GROUP   :   D2h 

          NO CHARGES FOUND.

          COMPUTED CHARGE ON SYSTEM: +0

          Geometry optimization using EF

          DIAGONAL MATRIX USED AS START HESSIAN

 CYCLE:     1 TIME:   0.025 TIME LEFT:  2.00D  GRAD.:     4.100 HEAT:  332.6589
 CYCLE:     2 TIME:   0.038 TIME LEFT:  2.00D  GRAD.:     7.546 HEAT:  332.6585
 CYCLE:     3 TIME:   0.028 TIME LEFT:  2.00D  GRAD.:     7.087 HEAT:  332.6577
 CYCLE:     4 TIME:   0.011 TIME LEFT:  2.00D  GRAD.:     8.751 HEAT:  332.6565
 CYCLE:     5 TIME:   0.021 TIME LEFT:  2.00D  GRAD.:     7.557 HEAT:  332.6550
 CYCLE:     6 TIME:   0.011 TIME LEFT:  2.00D  GRAD.:     3.858 HEAT:  332.6485
 CYCLE:     7 TIME:   0.011 TIME LEFT:  2.00D  GRAD.:    10.913 HEAT:  332.6563
 CYCLE:     8 TIME:   0.008 TIME LEFT:  2.00D  GRAD.:     3.910 HEAT:  332.6480
 CYCLE:     9 TIME:   0.010 TIME LEFT:  2.00D  GRAD.:    10.060 HEAT:  332.6533
 CYCLE:    10 TIME:   0.010 TIME LEFT:  2.00D  GRAD.:     5.650 HEAT:  332.6488
 CYCLE:    11 TIME:   0.011 TIME LEFT:  2.00D  GRAD.:    10.353 HEAT:  332.6544
 CYCLE:    12 TIME:   0.009 TIME LEFT:  2.00D  GRAD.:     5.528 HEAT:  332.6493
 CYCLE:    13 TIME:   0.036 TIME LEFT:  2.00D  GRAD.:     6.200 HEAT:  332.6506
 CYCLE:    14 TIME:   0.011 TIME LEFT:  2.00D  GRAD.:     7.547 HEAT:  332.6559
 CYCLE:    15 TIME:   0.012 TIME LEFT:  2.00D  GRAD.:     4.144 HEAT:  332.6482
 CYCLE:    16 TIME:   0.020 TIME LEFT:  2.00D  GRAD.:    10.348 HEAT:  332.6574
 CYCLE:    17 TIME:   0.026 TIME LEFT:  2.00D  GRAD.:     8.859 HEAT:  332.6606
 CYCLE:    18 TIME:   0.021 TIME LEFT:  2.00D  GRAD.:     9.533 HEAT:  332.6585
 CYCLE:    19 TIME:   0.008 TIME LEFT:  2.00D  GRAD.:     2.757 HEAT:  332.6493
 CYCLE:    20 TIME:   0.021 TIME LEFT:  2.00D  GRAD.:     6.735 HEAT:  332.6545
 CYCLE:    21 TIME:   0.008 TIME LEFT:  2.00D  GRAD.:     2.660 HEAT:  332.6510
 CYCLE:    22 TIME:   0.011 TIME LEFT:  2.00D  GRAD.:     9.293 HEAT:  332.6580
 CYCLE:    23 TIME:   0.013 TIME LEFT:  2.00D  GRAD.:     1.405 HEAT:  332.6481
 CYCLE:    24 TIME:   0.009 TIME LEFT:  2.00D  GRAD.:     2.644 HEAT:  332.6492
 CYCLE:    25 TIME:   0.009 TIME LEFT:  2.00D  GRAD.:     2.040 HEAT:  332.6481


 HEAT OF FORMATION IS ESSENTIALLY STATIONARY

 -------------------------------------------------------------------------------
 MOZYME RE-LOCAL ALLVEC
 comment1
 comment2


     GEOMETRY OPTIMISED USING EIGENVECTOR FOLLOWING (EF).     
     SCF FIELD WAS ACHIEVED                                   


                              PM7 CALCULATION
                                                       MOPAC2016 (Version: 21.329M)
                                                       Thu Dec  9 02:43:49 2021




          FINAL HEAT OF FORMATION =        332.64736 KCAL/MOL =    1391.79654 KJ/MOL



          GRADIENT NORM           =          2.04012          =       0.54525 PER ATOM
          NO. OF FILLED LEVELS    =         25
          MOLECULAR WEIGHT        =        146.1478         POINT GROUP:  D2h 

          MOLECULAR DIMENSIONS (Angstroms)

            Atom       Atom       Distance
            H    14    H     1    16.14473
            C    10    C     7     0.00673
            C     9    C     5     0.00356


          SCF CALCULATIONS        =         36

          WALL-CLOCK TIME         =          0.817 SECONDS
          COMPUTATION TIME        =          3.136 SECONDS



       FINAL  POINT  AND  DERIVATIVES

             Cartesian Gradients         Cartesian Coordinates          |Gradient|
  Atom       X        Y        Z        X          Y          Z

    2  C    0.159    0.053   -0.406    0.60805   -0.00040    0.00179       0.440
    3  C    0.095   -0.031    0.577    1.82288    0.00018    0.00043       0.585
    4  C   -0.272   -0.069   -0.190    3.17923   -0.00038   -0.00121       0.339
    5  C   -0.192    0.088   -0.085    4.40019   -0.00140   -0.00002       0.227
    6  C    0.270   -0.363    0.496    5.75241   -0.00091   -0.00088       0.672
    7  C    0.223    0.475   -0.421    6.97429    0.00213   -0.00313       0.672
    8  C   -0.126   -0.439   -0.401    8.32573    0.00168   -0.00255       0.608
    9  C   -0.373    0.468    0.413    9.54758    0.00104    0.00152       0.727
   10  C    0.298   -0.387    0.403   10.89981   -0.00052    0.00251       0.634
   11  C    0.112    0.273   -0.603   12.12073    0.00061    0.00029       0.671
   12  C   -0.127   -0.103    0.698   13.47712   -0.00014    0.00047       0.717
   13  C   -0.039    0.028   -0.532   14.69198   -0.00117   -0.00013       0.535





   ATOM   CHEMICAL          X               Y               Z
  NUMBER   SYMBOL      (ANGSTROMS)     (ANGSTROMS)     (ANGSTROMS)

     1       H         -0.42237623  *  -0.00051692  *   0.00298452  *
     2       C          0.60805253  *  -0.00040463  *   0.00178782  *
     3       C          1.82287878  *   0.00018074  *   0.00042756  *
     4       C          3.17923166  *  -0.00037545  *  -0.00121488  *
     5       C          4.40018555  *  -0.00139807  *  -0.00001721  *
     6       C          5.75240609  *  -0.00090792  *  -0.00087735  *
     7       C          6.97429283  *   0.00212730  *  -0.00312633  *
     8       C          8.32573343  *   0.00168254  *  -0.00254674  *
     9       C          9.54758189  *   0.00103800  *   0.00151613  *
    10       C         10.89981293  *  -0.00052253  *   0.00250808  *
    11       C         12.12072998  *   0.00060521  *   0.00029361  *
    12       C         13.47712105  *  -0.00013970  *   0.00047299  *
    13       C         14.69197885  *  -0.00116535  *  -0.00012793  *
    14       H         15.72235708  *  -0.00196909  *   0.00013704  *

                             CARTESIAN COORDINATES

   1    H       -0.422376234    -0.000516925     0.002984524
   2    C        0.608052534    -0.000404630     0.001787818
   3    C        1.822878777     0.000180744     0.000427555
   4    C        3.179231658    -0.000375448    -0.001214876
   5    C        4.400185554    -0.001398069    -0.000017214
   6    C        5.752406087    -0.000907921    -0.000877348
   7    C        6.974292834     0.002127304    -0.003126333
   8    C        8.325733431     0.001682541    -0.002546744
   9    C        9.547581891     0.001037998     0.001516130
  10    C       10.899812929    -0.000522535     0.002508078
  11    C       12.120729980     0.000605207     0.000293614
  12    C       13.477121051    -0.000139699     0.000472990
  13    C       14.691978849    -0.001165347    -0.000127925
  14    H       15.722357077    -0.001969087     0.000137036


           Empirical Formula: C12 H2  =    14 atoms

            LMOs being Re-Localized

          NUMBER OF ITERATIONS =  15
          LOCALIZATION VALUE =  12.111483591

          LOCALIZED MOLECULAR ORBITALS

           Occupied Set

  NUMBER OF CENTERS  LMO ENERGY     COMPOSITION OF ORBITALS 
                                    (AS PERCENT OF THE LMO)

   1    2.0068        -24.87537    C  9 50.01    C  8 49.82
   2    2.0072        -24.87479    C  6 50.00    C  7 49.82
   3    2.0072        -24.85684    C 11 49.98    C 10 49.84
   4    2.0072        -24.85675    C  4 49.98    C  5 49.84
   5    2.0061        -24.63517    C  3 50.87    C  2 48.96
   6    2.0061        -24.63461    C 12 50.87    C 13 48.96
   7    2.0121        -22.65927    C  8 49.85    C  7 49.85
   8    2.0116        -22.62476    C  5 49.97    C  6 49.74
   9    2.0116        -22.62449    C 10 49.97    C  9 49.74
  10    2.0112        -22.48709    C  4 50.12    C  3 49.60
  11    2.0112        -22.48421    C 11 50.13    C 12 49.59
  12    1.9342        -19.56515    C 13 59.61    H 14 40.21
  13    1.9342        -19.56252    C  2 59.61    H  1 40.21
  14    2.1795        -12.39283    C  8 48.04    C  9 47.73    C  7  1.08    C 10  1.02
  15    2.1790        -12.39254    C  8 48.04    C  9 47.74    C  7  1.08    C 10  1.02
  16    2.1791        -12.39044    C  7 48.01    C  6 47.77    C  8  1.06    C  5  1.03
  17    2.1791        -12.39042    C  7 48.01    C  6 47.77    C  8  1.06    C  5  1.03
  18    2.1669        -12.38927    C 10 48.67    C 11 47.38    C  9  1.10
  19    2.1669        -12.38913    C 10 48.67    C 11 47.38    C  9  1.10
  20    2.1674        -12.38862    C  5 48.65    C  4 47.39    C  6  1.09
  21    2.1674        -12.38822    C  5 48.65    C  4 47.39    C  6  1.08
  22    2.0877        -12.20112    C 12 50.25    C 13 47.58    C 11  1.06
  23    2.0877        -12.20112    C 12 50.25    C 13 47.58    C 11  1.06
  24    2.0877        -12.20029    C  3 50.25    C  2 47.58    C  4  1.06
  25    2.0872        -12.20013    C  3 50.25    C  2 47.59    C  4  1.06

           Virtual Set (NOT re-localized!)

  NUMBER OF CENTERS  LMO ENERGY     COMPOSITION OF ORBITALS 
                                    (AS PERCENT OF THE LMO)

  26    2.1849          0.97836    C  6 47.96    C  7 47.69    C  5  1.09    C  8  1.08
  27    2.1854          0.97841    C  6 47.96    C  7 47.68    C  5  1.09    C  8  1.08
  28    2.1849          0.98117    C  9 47.97    C  8 47.68    C 10  1.10    C  7  1.08
  29    2.1849          0.98124    C  9 47.97    C  8 47.68    C 10  1.10    C  7  1.08
  30    2.1733          0.99394    C 11 48.53    C 10 47.37    C  9  1.05    C 12  1.01
  31    2.1733          0.99394    C 11 48.53    C 10 47.37    C  9  1.05    C 12  1.01
  32    2.1738          0.99478    C  4 48.51    C  5 47.38    C  6  1.06    C  3  1.01
  33    2.1738          0.99483    C  4 48.51    C  5 47.38    C  6  1.06    C  3  1.01
  34    2.0764          1.05144    C 13 50.31    C 12 47.80
  35    2.0764          1.05144    C 13 50.31    C 12 47.80
  36    2.0764          1.05240    C  2 50.31    C  3 47.80
  37    2.0760          1.05251    C  2 50.31    C  3 47.81
  38    2.0129          4.44779    C  8 49.84    C  7 49.84
  39    2.0129          4.46110    C  6 49.95    C  5 49.73
  40    2.0129          4.46116    C  9 49.95    C 10 49.73
  41    2.0148          4.48209    C  3 50.05    C  4 49.58
  42    2.0148          4.48374    C 12 50.07    C 11 49.56
  43    1.9370          5.52710    H 14 59.58    C 13 40.16
  44    1.9372          5.52996    H  1 59.57    C  2 40.17
  45    2.0064          5.60087    C  7 50.01    C  6 49.83
  46    2.0064          5.60103    C  8 50.01    C  9 49.83
  47    2.0064          5.64045    C  5 49.99    C  4 49.85
  48    2.0060          5.64097    C 10 49.99    C 11 49.86
  49    2.0020          5.94562    C  2 50.98    C  3 48.95
  50    2.0020          5.94610    C 13 50.99    C 12 48.94


              NET ATOMIC CHARGES AND DIPOLE CONTRIBUTIONS

  ATOM NO.   TYPE          CHARGE      No. of ELECS.   s-Pop       p-Pop       
    1          H           0.192842        0.8072     0.80716
    2          C          -0.116369        4.1164     1.14297     2.97340
    3          C          -0.059497        4.0595     1.05970     2.99979
    4          C           0.013580        3.9864     1.06000     2.92642
    5          C          -0.027726        4.0277     1.05375     2.97398
    6          C           0.003375        3.9966     1.05517     2.94145
    7          C          -0.006200        4.0062     1.05364     2.95256
    8          C          -0.006195        4.0062     1.05363     2.95256
    9          C           0.003363        3.9966     1.05517     2.94147
   10          C          -0.027715        4.0277     1.05375     2.97397
   11          C           0.013575        3.9864     1.06000     2.92642
   12          C          -0.059487        4.0595     1.05972     2.99977
   13          C          -0.116374        4.1164     1.14296     2.97341
   14          H           0.192828        0.8072     0.80717
 DIPOLE           X         Y         Z       TOTAL
 POINT-CHG.    -0.000    -0.001     0.001     0.002
 HYBRID         0.000     0.000    -0.001     0.001
 SUM           -0.000    -0.001     0.001     0.001


          ATOMIC ORBITAL ELECTRON POPULATIONS

     Atom    s        px        py        pz   
    1  H   0.80716
    2  C   1.14297   1.03042   0.97149   0.97149
    3  C   1.05970   0.95389   1.02295   1.02295
    4  C   1.06000   0.94710   0.98966   0.98966
    5  C   1.05375   0.94721   1.01338   1.01338
    6  C   1.05517   0.94446   0.99849   0.99849
    7  C   1.05364   0.94452   1.00402   1.00402
    8  C   1.05363   0.94453   1.00402   1.00402
    9  C   1.05517   0.94447   0.99850   0.99850
   10  C   1.05375   0.94721   1.01338   1.01338
   11  C   1.06000   0.94710   0.98966   0.98966
   12  C   1.05972   0.95388   1.02294   1.02294
   13  C   1.14296   1.03041   0.97150   0.97150
   14  H   0.80717
 *******************************************************************************
 ** Cite this program as: MOPAC2016, Version: 21.329M, James J. P. Stewart,   **
 **                           web-site: HTTP://OpenMOPAC.net.                 **
 *******************************************************************************
 **                                                                           **
 **                                MOPAC2016                                  **
 **                                                                           **
 *******************************************************************************

                              PM7 CALCULATION RESULTS

 *******************************************************************************
 *  CALCULATION DONE:                                Thu Dec  9 02:43:49 2021  *
 *  MOZYME     - USE LOCALIZED M.O.s IN SOLVING THE SCF EQUATIONS
 *  RE-LOCAL   - RE-LOCALIZE LMOs AT END OF CALCULATION
 *  T=         - A TIME OF 172800.0 SECONDS REQUESTED
 *  DUMP=N     - RESTART FILE WRITTEN EVERY 7200.0 SECONDS REQUESTED
 *  ALLVEC     - PRINT ALL EIGENVECTORS
 *******************************************************************************
MOZYME RE-LOCAL=4 ALLVEC
 comment1
 comment2
   ATOM   CHEMICAL          X               Y               Z
  NUMBER   SYMBOL      (ANGSTROMS)     (ANGSTROMS)     (ANGSTROMS)

     1       H         -0.42216732  *  -0.00071395  *  -0.00131452  *
     2       C          0.60742800  *   0.00121115  *  -0.00266298  *
     3       C          1.82265400  *   0.00159233  *   0.00493786  *
     4       C          3.17967731  *   0.00115570  *   0.00352862  *
     5       C          4.40075631  *  -0.00296205  *  -0.00268502  *
     6       C          5.75224499  *  -0.00225247  *  -0.00360192  *
     7       C          6.97408815  *  -0.00101357  *   0.00137222  *
     8       C          8.32551577  *   0.00293214  *   0.00113083  *
     9       C          9.54749363  *  -0.00306728  *  -0.00373331  *
    10       C         10.90008716  *   0.00029715  *  -0.00267419  *
    11       C         12.12105528  *   0.00122943  *   0.00178979  *
    12       C         13.47703197  *   0.00238485  *   0.00472792  *
    13       C         14.69189272  *  -0.00067906  *  -0.00161486  *
    14       H         15.72242530  *  -0.00214550  *  -0.00046315  *



          CARTESIAN COORDINATES 

    NO.       ATOM           X           Y           Z

     1         H         -0.4222     -0.0007     -0.0013
     2         C          0.6074      0.0012     -0.0027
     3         C          1.8227      0.0016      0.0049
     4         C          3.1797      0.0012      0.0035
     5         C          4.4008     -0.0030     -0.0027
     6         C          5.7522     -0.0023     -0.0036
     7         C          6.9741     -0.0010      0.0014
     8         C          8.3255      0.0029      0.0011
     9         C          9.5475     -0.0031     -0.0037
    10         C         10.9001      0.0003     -0.0027
    11         C         12.1211      0.0012      0.0018
    12         C         13.4770      0.0024      0.0047
    13         C         14.6919     -0.0007     -0.0016
    14         H         15.7224     -0.0021     -0.0005

 General Reference for PM7:
 "Optimization of Parameters for Semiempirical Methods VI: More Modifications to the 
 NDDO Approximations and Re-optimization of Parameters", J. J. P. Stewart, J. Mol. Mod., 1:32, 19 (2013)
 https://link.springer.com/article/10.1007/s00894-012-1667-x

           Empirical Formula: C12 H2  =    14 atoms



      MOLECULAR POINT GROUP   :   D2h 

          NO CHARGES FOUND.

          COMPUTED CHARGE ON SYSTEM: +0

          Geometry optimization using EF

          DIAGONAL MATRIX USED AS START HESSIAN

 CYCLE:     1 TIME:   0.024 TIME LEFT:  2.00D  GRAD.:     4.100 HEAT:  332.6589

            LMOs being Re-Localized

          NUMBER OF ITERATIONS =  18
          LOCALIZATION VALUE =  12.114725990

 CYCLE:     2 TIME:   0.041 TIME LEFT:  2.00D  GRAD.:     7.548 HEAT:  332.6585
 CYCLE:     3 TIME:   0.027 TIME LEFT:  2.00D  GRAD.:     7.192 HEAT:  332.6579
 CYCLE:     4 TIME:   0.013 TIME LEFT:  2.00D  GRAD.:     8.688 HEAT:  332.6563

            LMOs being Re-Localized

          NUMBER OF ITERATIONS =  48
          LOCALIZATION VALUE =  12.112568911

 CYCLE:     5 TIME:   0.032 TIME LEFT:  2.00D  GRAD.:     7.707 HEAT:  332.6552
 CYCLE:     6 TIME:   0.008 TIME LEFT:  2.00D  GRAD.:     3.912 HEAT:  332.6486
 CYCLE:     7 TIME:   0.010 TIME LEFT:  2.00D  GRAD.:    11.090 HEAT:  332.6566

            LMOs being Re-Localized

          NUMBER OF ITERATIONS = 101
          LOCALIZATION VALUE =  12.111921025

 CYCLE:     8 TIME:   0.026 TIME LEFT:  2.00D  GRAD.:     3.927 HEAT:  332.6480
 CYCLE:     9 TIME:   0.009 TIME LEFT:  2.00D  GRAD.:    10.074 HEAT:  332.6533
 CYCLE:    10 TIME:   0.009 TIME LEFT:  2.00D  GRAD.:     5.627 HEAT:  332.6488
 CYCLE:    11 TIME:   0.012 TIME LEFT:  2.00D  GRAD.:     9.804 HEAT:  332.6538

            LMOs being Re-Localized

          NUMBER OF ITERATIONS =   6
          LOCALIZATION VALUE =  12.112271076

 CYCLE:    12 TIME:   0.028 TIME LEFT:  2.00D  GRAD.:     6.276 HEAT:  332.6516

            LMOs being Re-Localized

          NUMBER OF ITERATIONS = 101
          LOCALIZATION VALUE =  12.109963391

 CYCLE:    13 TIME:   0.087 TIME LEFT:  2.00D  GRAD.:     4.992 HEAT:  332.6485
 CYCLE:    14 TIME:   0.012 TIME LEFT:  2.00D  GRAD.:     8.125 HEAT:  332.6531
 CYCLE:    15 TIME:   0.013 TIME LEFT:  2.00D  GRAD.:     8.374 HEAT:  332.6546

            LMOs being Re-Localized

          NUMBER OF ITERATIONS =  84
          LOCALIZATION VALUE =  12.112361077


            LMOs being Re-Localized

          NUMBER OF ITERATIONS =  12
          LOCALIZATION VALUE =  12.110781482

 CYCLE:    16 TIME:   0.116 TIME LEFT:  2.00D  GRAD.:     5.056 HEAT:  332.6504
 CYCLE:    17 TIME:   0.010 TIME LEFT:  2.00D  GRAD.:     1.948 HEAT:  332.6469
 CYCLE:    18 TIME:   0.007 TIME LEFT:  2.00D  GRAD.:     6.390 HEAT:  332.6511
 CYCLE:    19 TIME:   0.012 TIME LEFT:  2.00D  GRAD.:     8.394 HEAT:  332.6534

            LMOs being Re-Localized

          NUMBER OF ITERATIONS =  10
          LOCALIZATION VALUE =  12.111395401

 CYCLE:    20 TIME:   0.041 TIME LEFT:  2.00D  GRAD.:     7.826 HEAT:  332.6527
 CYCLE:    21 TIME:   0.008 TIME LEFT:  2.00D  GRAD.:     2.157 HEAT:  332.6473

            LMOs being Re-Localized

          NUMBER OF ITERATIONS =  17
          LOCALIZATION VALUE =  12.111221480

 CYCLE:    22 TIME:   0.014 TIME LEFT:  2.00D  GRAD.:     6.084 HEAT:  332.6510
 CYCLE:    23 TIME:   0.008 TIME LEFT:  2.00D  GRAD.:     2.151 HEAT:  332.6475
 CYCLE:    24 TIME:   0.008 TIME LEFT:  2.00D  GRAD.:     4.327 HEAT:  332.6499
 CYCLE:    25 TIME:   0.009 TIME LEFT:  2.00D  GRAD.:     1.746 HEAT:  332.6473

            LMOs being Re-Localized

          NUMBER OF ITERATIONS =   8
          LOCALIZATION VALUE =  12.111389935

 CYCLE:    26 TIME:   0.015 TIME LEFT:  2.00D  GRAD.:     4.335 HEAT:  332.6497
 CYCLE:    27 TIME:   0.008 TIME LEFT:  2.00D  GRAD.:     1.936 HEAT:  332.6475
 CYCLE:    28 TIME:   0.010 TIME LEFT:  2.00D  GRAD.:     4.397 HEAT:  332.6504
 CYCLE:    29 TIME:   0.008 TIME LEFT:  2.00D  GRAD.:     1.441 HEAT:  332.6470

            LMOs being Re-Localized

          NUMBER OF ITERATIONS =   7
          LOCALIZATION VALUE =  12.111409802

 CYCLE:    30 TIME:   0.021 TIME LEFT:  2.00D  GRAD.:     2.736 HEAT:  332.6480
 CYCLE:    31 TIME:   0.007 TIME LEFT:  2.00D  GRAD.:     1.156 HEAT:  332.6466
 CYCLE:    32 TIME:   0.008 TIME LEFT:  2.00D  GRAD.:     1.301 HEAT:  332.6467
 CYCLE:    33 TIME:   0.008 TIME LEFT:  2.00D  GRAD.:     0.766 HEAT:  332.6463

     GRADIENT =  0.76598 IS LESS THAN CUTOFF =  1.00000



            LMOs being Re-Localized

          NUMBER OF ITERATIONS =   8
          LOCALIZATION VALUE =  12.111426503


 -------------------------------------------------------------------------------
 MOZYME RE-LOCAL=4 ALLVEC
 comment1
 comment2


     GEOMETRY OPTIMISED USING EIGENVECTOR FOLLOWING (EF).     
     SCF FIELD WAS ACHIEVED                                   


                              PM7 CALCULATION
                                                       MOPAC2016 (Version: 21.329M)
                                                       Thu Dec  9 02:43:50 2021




          FINAL HEAT OF FORMATION =        332.64621 KCAL/MOL =    1391.79173 KJ/MOL



          GRADIENT NORM           =          0.76598          =       0.20472 PER ATOM
          NO. OF FILLED LEVELS    =         25
          MOLECULAR WEIGHT        =        146.1478         POINT GROUP:  D2h 

          MOLECULAR DIMENSIONS (Angstroms)

            Atom       Atom       Distance
            H    14    H     1    16.14465
            C     7    H     1     0.00633
            C     5    C    11     0.00377


          SCF CALCULATIONS        =         48

          WALL-CLOCK TIME         =          1.499 SECONDS
          COMPUTATION TIME        =          5.852 SECONDS




   ATOM   CHEMICAL          X               Y               Z
  NUMBER   SYMBOL      (ANGSTROMS)     (ANGSTROMS)     (ANGSTROMS)

     1       H         -0.42232905  *   0.00004924  *   0.00336056  *
     2       C          0.60800860  *  -0.00017239  *   0.00262225  *
     3       C          1.82286369  *   0.00029828  *   0.00119596  *
     4       C          3.17934869  *  -0.00034063  *   0.00027344  *
     5       C          4.40029992  *  -0.00129334  *  -0.00096968  *
     6       C          5.75227342  *  -0.00087114  *  -0.00178824  *
     7       C          6.97419745  *   0.00057867  *  -0.00367752  *
     8       C          8.32581621  *   0.00131038  *  -0.00279573  *
     9       C          9.54771829  *   0.00092179  *  -0.00089429  *
    10       C         10.89969826  *   0.00087552  *   0.00051148  *
    11       C         12.12061874  *   0.00061795  *   0.00132944  *
    12       C         13.47713369  *   0.00018017  *   0.00132610  *
    13       C         14.69202653  *  -0.00145108  *   0.00150097  *
    14       H         15.72231711  *  -0.00230752  *   0.00135441  *

                             CARTESIAN COORDINATES

   1    H       -0.422329046     0.000049240     0.003360563
   2    C        0.608008595    -0.000172391     0.002622249
   3    C        1.822863688     0.000298282     0.001195958
   4    C        3.179348695    -0.000340626     0.000273443
   5    C        4.400299919    -0.001293339    -0.000969684
   6    C        5.752273416    -0.000871138    -0.001788243
   7    C        6.974197452     0.000578668    -0.003677523
   8    C        8.325816208     0.001310379    -0.002795730
   9    C        9.547718286     0.000921791    -0.000894291
  10    C       10.899698263     0.000875517     0.000511476
  11    C       12.120618736     0.000617952     0.001329441
  12    C       13.477133694     0.000180166     0.001326099
  13    C       14.692026531    -0.001451083     0.001500970
  14    H       15.722317110    -0.002307520     0.001354413


           Empirical Formula: C12 H2  =    14 atoms

            LMOs being Re-Localized

          NUMBER OF ITERATIONS =   5
          LOCALIZATION VALUE =  12.111408049

          LOCALIZED MOLECULAR ORBITALS

           Occupied Set

  NUMBER OF CENTERS  LMO ENERGY     COMPOSITION OF ORBITALS 
                                    (AS PERCENT OF THE LMO)

   1    2.0068        -24.87465    C  9 50.01    C  8 49.82
   2    2.0072        -24.87432    C  6 50.00    C  7 49.82
   3    2.0072        -24.85696    C 11 49.98    C 10 49.84
   4    2.0072        -24.85692    C  4 49.98    C  5 49.84
   5    2.0061        -24.63485    C  3 50.87    C  2 48.96
   6    2.0061        -24.63423    C 12 50.87    C 13 48.96
   7    2.0121        -22.65700    C  8 49.85    C  7 49.85
   8    2.0116        -22.62865    C  5 49.97    C  6 49.74
   9    2.0116        -22.62788    C 10 49.97    C  9 49.74
  10    2.0112        -22.48484    C  4 50.12    C  3 49.60
  11    2.0112        -22.48268    C 11 50.13    C 12 49.59
  12    1.9342        -19.56614    C 13 59.61    H 14 40.21
  13    1.9339        -19.56345    C  2 59.61    H  1 40.22
  14    2.1790        -12.39266    C  8 48.04    C  9 47.74    C  7  1.08    C 10  1.02
  15    2.1795        -12.39262    C  8 48.04    C  9 47.73    C  7  1.08    C 10  1.02
  16    2.1795        -12.39036    C  7 48.00    C  6 47.77    C  8  1.06    C  5  1.03
  17    2.1791        -12.39012    C  7 48.01    C  6 47.77    C  8  1.06    C  5  1.03
  18    2.1674        -12.38927    C 10 48.67    C 11 47.37    C  9  1.10
  19    2.1669        -12.38888    C 10 48.67    C 11 47.38    C  9  1.10
  20    2.1674        -12.38851    C  5 48.65    C  4 47.39    C  6  1.09
  21    2.1674        -12.38829    C  5 48.65    C  4 47.39    C  6  1.08
  22    2.0877        -12.20093    C 12 50.25    C 13 47.58    C 11  1.06
  23    2.0877        -12.20089    C 12 50.25    C 13 47.58    C 11  1.06
  24    2.0877        -12.20018    C  3 50.25    C  2 47.58    C  4  1.06
  25    2.0872        -12.19982    C  3 50.25    C  2 47.59    C  4  1.06

           Virtual Set (NOT re-localized!)

  NUMBER OF CENTERS  LMO ENERGY     COMPOSITION OF ORBITALS 
                                    (AS PERCENT OF THE LMO)

  26    2.1849          0.97818    C  6 47.96    C  7 47.69    C  5  1.09    C  8  1.08
  27    2.1849          0.97820    C  6 47.96    C  7 47.69    C  5  1.09    C  8  1.08
  28    2.1854          0.98105    C  9 47.96    C  8 47.68    C 10  1.10    C  7  1.08
  29    2.1849          0.98105    C  9 47.97    C  8 47.68    C 10  1.10    C  7  1.08
  30    2.1738          0.99375    C 11 48.53    C 10 47.36    C  9  1.05    C 12  1.01
  31    2.1733          0.99394    C 11 48.53    C 10 47.37    C  9  1.05    C 12  1.01
  32    2.1738          0.99477    C  4 48.51    C  5 47.38    C  6  1.06    C  3  1.01
  33    2.1738          0.99482    C  4 48.51    C  5 47.38    C  6  1.06    C  3  1.01
  34    2.0764          1.05120    C 13 50.31    C 12 47.80
  35    2.0764          1.05123    C 13 50.31    C 12 47.80
  36    2.0760          1.05224    C  2 50.31    C  3 47.81
  37    2.0760          1.05235    C  2 50.31    C  3 47.81
  38    2.0121          4.45354    C  8 49.85    C  7 49.85
  39    2.0116          4.47033    C  9 49.97    C 10 49.74
  40    2.0116          4.47033    C  6 49.97    C  5 49.74
  41    2.0132          4.49060    C  3 50.09    C  4 49.58
  42    2.0132          4.49186    C 12 50.10    C 11 49.57
  43    1.9346          5.54804    H 14 59.56    C 13 40.27
  44    1.9347          5.54949    H  1 59.55    C  2 40.28
  45    2.0072          5.59311    C  7 50.00    C  6 49.82
  46    2.0072          5.59317    C  8 50.00    C  9 49.82
  47    2.0072          5.63356    C  5 49.98    C  4 49.84
  48    2.0072          5.63404    C 10 49.97    C 11 49.85
  49    2.0037          5.91993    C 13 50.90    C 12 48.99
  50    2.0033          5.92043    C  2 50.90    C  3 49.00


              NET ATOMIC CHARGES AND DIPOLE CONTRIBUTIONS

  ATOM NO.   TYPE          CHARGE      No. of ELECS.   s-Pop       p-Pop       
    1          H           0.192820        0.8072     0.80718
    2          C          -0.116371        4.1164     1.14296     2.97341
    3          C          -0.059477        4.0595     1.05973     2.99974
    4          C           0.013619        3.9864     1.06002     2.92636
    5          C          -0.027758        4.0278     1.05371     2.97405
    6          C           0.003319        3.9967     1.05514     2.94154
    7          C          -0.006150        4.0062     1.05367     2.95248
    8          C          -0.006148        4.0061     1.05367     2.95248
    9          C           0.003317        3.9967     1.05513     2.94155
   10          C          -0.027756        4.0278     1.05371     2.97405
   11          C           0.013619        3.9864     1.06002     2.92636
   12          C          -0.059474        4.0595     1.05974     2.99973
   13          C          -0.116369        4.1164     1.14296     2.97341
   14          H           0.192809        0.8072     0.80719
 DIPOLE           X         Y         Z       TOTAL
 POINT-CHG.    -0.000    -0.001     0.002     0.002
 HYBRID         0.000     0.000    -0.000     0.000
 SUM           -0.000    -0.001     0.001     0.002


          ATOMIC ORBITAL ELECTRON POPULATIONS

     Atom    s        px        py        pz   
    1  H   0.80718
    2  C   1.14296   1.03041   0.97150   0.97150
    3  C   1.05973   0.95387   1.02294   1.02294
    4  C   1.06002   0.94709   0.98964   0.98964
    5  C   1.05371   0.94724   1.01340   1.01340
    6  C   1.05514   0.94450   0.99853   0.99852
    7  C   1.05367   0.94449   1.00399   1.00399
    8  C   1.05367   0.94449   1.00400   1.00399
    9  C   1.05513   0.94450   0.99852   0.99853
   10  C   1.05371   0.94725   1.01340   1.01340
   11  C   1.06002   0.94709   0.98964   0.98964
   12  C   1.05974   0.95386   1.02293   1.02294
   13  C   1.14296   1.03040   0.97151   0.97151
   14  H   0.80719

 **********************
 *                    *
 * JOB ENDED NORMALLY *
 *                    *
 **********************



 TOTAL JOB TIME:             2.73 SECONDS

 == MOPAC DONE ==
