 *******************************************************************************
 ** Cite this program as: MOPAC2016, Version: 21.298M, James J. P. Stewart,   **
 **                           web-site: HTTP://OpenMOPAC.net.                 **
 *******************************************************************************
 **                                                                           **
 **                                MOPAC2016                                  **
 **                                                                           **
 *******************************************************************************

                              PM7 CALCULATION RESULTS

 *******************************************************************************
 *  CALCULATION DONE:                                Fri Oct 29 13:45:44 2021  *
 *  CISD       - C.I. USES 1 AND 2 ELECTRON EXCITATIONS
 *  C.I.=6     - 6 M.O.S TO BE USED IN C.I.
 *  1SCF       - DO 1 SCF AND THEN STOP 
 *  T=         - A TIME OF 172800.0 SECONDS REQUESTED
 *  DUMP=N     - RESTART FILE WRITTEN EVERY 7200.0 SECONDS REQUESTED
 *  MECI       - M.E.C.I. WORKING TO BE PRINTED
 *******************************************************************************
1SCF C.I.=6 CISD MECI
 comment1
 comment2
   ATOM   CHEMICAL          X               Y               Z
  NUMBER   SYMBOL      (ANGSTROMS)     (ANGSTROMS)     (ANGSTROMS)
 
     1      Cr          0.00000000  *   0.00000000  *   0.00000000  *
     2       C          1.91000000  *   0.00000000  *   0.00000000  *
     3       C         -1.91000000  *   0.00000000  *   0.00000000  *
     4       C          0.00000000  *   1.91000000  *   0.00000000  *
     5       C          0.00000000  *  -1.91000000  *   0.00000000  *
     6       C          0.00000000  *   0.00000000  *   1.91000000  *
     7       C          0.00000000  *   0.00000000  *  -1.91000000  *
     8       O          3.05000000  *   0.00000000  *   0.00000000  *
     9       O         -3.05000000  *   0.00000000  *   0.00000000  *
    10       O          0.00000000  *   3.05000000  *   0.00000000  *
    11       O          0.00000000  *  -3.05000000  *   0.00000000  *
    12       O          0.00000000  *   0.00000000  *   3.05000000  *
    13       O          0.00000000  *   0.00000000  *  -3.05000000  *
 


          CARTESIAN COORDINATES 

    NO.       ATOM           X           Y           Z

     1        Cr          0.0000      0.0000      0.0000
     2         C          1.9100      0.0000      0.0000
     3         C         -1.9100      0.0000      0.0000
     4         C          0.0000      1.9100      0.0000
     5         C          0.0000     -1.9100      0.0000
     6         C          0.0000      0.0000      1.9100
     7         C          0.0000      0.0000     -1.9100
     8         O          3.0500      0.0000      0.0000
     9         O         -3.0500      0.0000      0.0000
    10         O          0.0000      3.0500      0.0000
    11         O          0.0000     -3.0500      0.0000
    12         O          0.0000      0.0000      3.0500
    13         O          0.0000      0.0000     -3.0500

 General Reference for PM7:
 "Optimization of Parameters for Semiempirical Methods VI: More Modifications to the 
 NDDO Approximations and Re-optimization of Parameters", J. J. P. Stewart, J. Mol. Mod., 1:32, 19 (2013)
 https://link.springer.com/article/10.1007/s00894-012-1667-x

           Empirical Formula: C6 O6 Cr  =    13 atoms



      MOLECULAR POINT GROUP   :   Oh  


      RHF CALCULATION, NO. OF DOUBLY OCCUPIED LEVELS = 33



 ALL CONVERGERS ARE NOW FORCED ON
 SHIFT=10, PULAY ON, CAMP-KING ON
 AND ITERATION COUNTER RESET



 -------------------------------------------------------------------------------
 1SCF C.I.=6 CISD MECI
 comment1
 comment2


     1SCF WAS SPECIFIED, SO BFGS WAS NOT USED                 
     SCF FIELD WAS ACHIEVED                                   


                              PM7 CALCULATION
                                                       MOPAC2016 (Version: 21.298M)
                                                       Fri Oct 29 13:45:45 2021




          FINAL HEAT OF FORMATION =       -205.75414 KCAL/MOL =    -860.87533 KJ/MOL


          COSMO AREA              =        198.98 SQUARE ANGSTROMS
          COSMO VOLUME            =        200.21 CUBIC ANGSTROMS

          IONIZATION POTENTIAL    =          9.960464 EV          STATE:   1 SINGLET A1g
          HOMO LUMO ENERGIES (EV) =         -9.960 -0.191
          NO. OF FILLED LEVELS    =         33
          MOLECULAR WEIGHT        =        220.0584         POINT GROUP:  Oh  

          MOLECULAR DIMENSIONS (Angstroms)

            Atom       Atom       Distance
            O     9    O     8     6.10000
            O    11    O    10     6.10000
            O    13    O    12     6.10000


          SCF CALCULATIONS        =          1
 
          WALL-CLOCK TIME         =          0.785 SECONDS
          COMPUTATION TIME        =          2.898 SECONDS




   ATOM   CHEMICAL          X               Y               Z
  NUMBER   SYMBOL      (ANGSTROMS)     (ANGSTROMS)     (ANGSTROMS)
 
     1      Cr          0.00000000  *   0.00000000  *   0.00000000  *
     2       C          1.91000000  *   0.00000000  *   0.00000000  *
     3       C         -1.91000000  *   0.00000000  *   0.00000000  *
     4       C          0.00000000  *   1.91000000  *   0.00000000  *
     5       C          0.00000000  *  -1.91000000  *   0.00000000  *
     6       C          0.00000000  *   0.00000000  *   1.91000000  *
     7       C          0.00000000  *   0.00000000  *  -1.91000000  *
     8       O          3.05000000  *   0.00000000  *   0.00000000  *
     9       O         -3.05000000  *   0.00000000  *   0.00000000  *
    10       O          0.00000000  *   3.05000000  *   0.00000000  *
    11       O          0.00000000  *  -3.05000000  *   0.00000000  *
    12       O          0.00000000  *   0.00000000  *   3.05000000  *
    13       O          0.00000000  *   0.00000000  *  -3.05000000  *

                             CARTESIAN COORDINATES

   1   Cr        0.000000000     0.000000000     0.000000000
   2    C        1.910000000     0.000000000     0.000000000
   3    C       -1.910000000     0.000000000     0.000000000
   4    C        0.000000000     1.910000000     0.000000000
   5    C        0.000000000    -1.910000000     0.000000000
   6    C        0.000000000     0.000000000     1.910000000
   7    C        0.000000000     0.000000000    -1.910000000
   8    O        3.050000000     0.000000000     0.000000000
   9    O       -3.050000000     0.000000000     0.000000000
  10    O        0.000000000     3.050000000     0.000000000
  11    O        0.000000000    -3.050000000     0.000000000
  12    O        0.000000000     0.000000000     3.050000000
  13    O        0.000000000     0.000000000    -3.050000000


           Empirical Formula: C6 O6 Cr  =    13 atoms



      MOLECULAR POINT GROUP   :   Oh  


                  EIGENVALUES  
 -34.33069 -34.33069 -33.55180 -33.55180 -33.55180 -33.43774 -23.17591 -22.33613
 -22.33613 -20.39583 -20.39583 -20.39583 -17.93917 -17.93917 -17.93917 -16.26866
 -15.94356 -15.94356 -15.94356 -15.73024 -15.73024 -15.73024 -15.57391 -15.57391
 -15.57391 -14.54492 -14.54492 -12.65217 -12.65217 -12.65217  -9.96046  -9.96046
  -9.96046  -0.19115  -0.19115  -0.19115   0.03777   0.03777   0.03777   0.61471
   0.61471   0.61471   2.48259   2.48259   2.48259   2.52524   4.04108   4.04108
   4.55203   4.55203   4.55203   6.07408   6.07408   7.70783  76.28449  76.28449
  76.28449


              NET ATOMIC CHARGES AND DIPOLE CONTRIBUTIONS

  ATOM NO.   TYPE          CHARGE      No. of ELECS.   s-Pop       p-Pop       d-Pop       
    1         Cr           0.322444        5.6776     0.38534     0.03331     5.25891
    2          C           0.354578        3.6454     1.55125     2.09418
    3          C           0.354578        3.6454     1.55125     2.09418
    4          C           0.354578        3.6454     1.55125     2.09418
    5          C           0.354578        3.6454     1.55125     2.09418
    6          C           0.354578        3.6454     1.55125     2.09418
    7          C           0.354578        3.6454     1.55125     2.09418
    8          O          -0.408319        6.4083     1.83937     4.56895
    9          O          -0.408319        6.4083     1.83937     4.56895
   10          O          -0.408319        6.4083     1.83937     4.56895
   11          O          -0.408319        6.4083     1.83937     4.56895
   12          O          -0.408319        6.4083     1.83937     4.56895
   13          O          -0.408319        6.4083     1.83937     4.56895
 DIPOLE           X         Y         Z       TOTAL
 POINT-CHG.    -0.000    -0.000    -0.000     0.000
 HYBRID         0.000     0.000     0.000     0.000
 SUM           -0.000    -0.000    -0.000     0.000


          ATOMIC ORBITAL ELECTRON POPULATIONS

     Atom    s        px        py        pz      x^2-y^2     xz        z^2       yz        xy
    1 Cr   0.38534   0.01110   0.01110   0.01110   0.57628   1.36878   0.57628   1.36878   1.36878
    2  C   1.55125   0.93108   0.58155   0.58155
    3  C   1.55125   0.93108   0.58155   0.58155
    4  C   1.55125   0.58155   0.93108   0.58155
    5  C   1.55125   0.58155   0.93108   0.58155
    6  C   1.55125   0.58155   0.58155   0.93108
    7  C   1.55125   0.58155   0.58155   0.93108
    8  O   1.83937   1.40181   1.58357   1.58357
    9  O   1.83937   1.40181   1.58357   1.58357
   10  O   1.83937   1.58357   1.40181   1.58357
   11  O   1.83937   1.58357   1.40181   1.58357
   12  O   1.83937   1.58357   1.58357   1.40181
   13  O   1.83937   1.58357   1.58357   1.40181


          MULTI-ELECTRON CONFIGURATION INTERACTION CALCULATION


          COMPONENT OF SPIN  =  0.0


           NO OF CONFIGURATIONS CONSIDERED = 118

 CONFIGURATIONS CONSIDERED IN C.I.      
 M.O. NUMBER :        31  32  33  34  35  36
          ENERGY

              1        1   1   1   0   0   0
          0.0000       1   1   1   0   0   0

              2        1   1   1   0   0   0
          4.4116       1   1   0   1   0   0

              3        1   1   1   0   0   0
          5.0257       1   1   0   0   1   0

              4        1   1   1   0   0   0
          5.0257       1   1   0   0   0   1

              5        1   1   1   0   0   0
          5.0257       1   0   1   1   0   0

              6        1   1   1   0   0   0
          5.0257       1   0   1   0   1   0

              7        1   1   1   0   0   0
          4.4116       1   0   1   0   0   1

              8        1   1   1   0   0   0
         11.4200       1   0   0   1   1   0

              9        1   1   1   0   0   0
         10.8058       1   0   0   1   0   1

             10        1   1   1   0   0   0
         11.4200       1   0   0   0   1   1

             11        1   1   1   0   0   0
          5.0257       0   1   1   1   0   0

             12        1   1   1   0   0   0
          4.4116       0   1   1   0   1   0

             13        1   1   1   0   0   0
          5.0257       0   1   1   0   0   1

             14        1   1   1   0   0   0
         10.8058       0   1   0   1   1   0

             15        1   1   1   0   0   0
         11.4200       0   1   0   1   0   1

             16        1   1   1   0   0   0
         11.4200       0   1   0   0   1   1

             17        1   1   1   0   0   0
         11.4200       0   0   1   1   1   0

             18        1   1   1   0   0   0
         11.4200       0   0   1   1   0   1

             19        1   1   1   0   0   0
         10.8058       0   0   1   0   1   1

             20        1   1   0   1   0   0
          4.4116       1   1   1   0   0   0

             21        1   1   0   1   0   0
         11.0350       1   1   0   1   0   0

             22        1   1   0   1   0   0
         11.5014       1   1   0   0   1   0

             23        1   1   0   1   0   0
         11.5014       1   1   0   0   0   1

             24        1   1   0   1   0   0
         11.2605       1   0   1   1   0   0

             25        1   1   0   1   0   0
         11.1128       1   0   1   0   1   0

             26        1   1   0   1   0   0
         10.4986       1   0   1   0   0   1

             27        1   1   0   1   0   0
         11.2605       0   1   1   1   0   0

             28        1   1   0   1   0   0
         10.4986       0   1   1   0   1   0

             29        1   1   0   1   0   0
         11.1128       0   1   1   0   0   1

             30        1   1   0   0   1   0
          5.0257       1   1   1   0   0   0

             31        1   1   0   0   1   0
         11.5014       1   1   0   1   0   0

             32        1   1   0   0   1   0
         13.0055       1   1   0   0   1   0

             33        1   1   0   0   1   0
         12.4867       1   1   0   0   0   1

             34        1   1   0   0   1   0
         11.3559       1   0   1   1   0   0

             35        1   1   0   0   1   0
         12.2458       1   0   1   0   1   0

             36        1   1   0   0   1   0
         11.1128       1   0   1   0   0   1

             37        1   1   0   0   1   0
         10.9848       0   1   1   1   0   0

             38        1   1   0   0   1   0
         11.2605       0   1   1   0   1   0

             39        1   1   0   0   1   0
         11.3559       0   1   1   0   0   1

             40        1   1   0   0   0   1
          5.0257       1   1   1   0   0   0

             41        1   1   0   0   0   1
         11.5014       1   1   0   1   0   0

             42        1   1   0   0   0   1
         12.4867       1   1   0   0   1   0

             43        1   1   0   0   0   1
         13.0055       1   1   0   0   0   1

             44        1   1   0   0   0   1
         10.9848       1   0   1   1   0   0

             45        1   1   0   0   0   1
         11.3559       1   0   1   0   1   0

             46        1   1   0   0   0   1
         11.2605       1   0   1   0   0   1

             47        1   1   0   0   0   1
         11.3559       0   1   1   1   0   0

             48        1   1   0   0   0   1
         11.1128       0   1   1   0   1   0

             49        1   1   0   0   0   1
         12.2458       0   1   1   0   0   1

             50        1   0   1   1   0   0
          5.0257       1   1   1   0   0   0

             51        1   0   1   1   0   0
         11.2605       1   1   0   1   0   0

             52        1   0   1   1   0   0
         11.3559       1   1   0   0   1   0

             53        1   0   1   1   0   0
         10.9848       1   1   0   0   0   1

             54        1   0   1   1   0   0
         13.0055       1   0   1   1   0   0

             55        1   0   1   1   0   0
         12.4867       1   0   1   0   1   0

             56        1   0   1   1   0   0
         11.5014       1   0   1   0   0   1

             57        1   0   1   1   0   0
         12.2458       0   1   1   1   0   0

             58        1   0   1   1   0   0
         11.1128       0   1   1   0   1   0

             59        1   0   1   1   0   0
         11.3559       0   1   1   0   0   1

             60        1   0   1   0   1   0
          5.0257       1   1   1   0   0   0

             61        1   0   1   0   1   0
         11.1128       1   1   0   1   0   0

             62        1   0   1   0   1   0
         12.2458       1   1   0   0   1   0

             63        1   0   1   0   1   0
         11.3559       1   1   0   0   0   1

             64        1   0   1   0   1   0
         12.4867       1   0   1   1   0   0

             65        1   0   1   0   1   0
         13.0055       1   0   1   0   1   0

             66        1   0   1   0   1   0
         11.5014       1   0   1   0   0   1

             67        1   0   1   0   1   0
         11.3559       0   1   1   1   0   0

             68        1   0   1   0   1   0
         11.2605       0   1   1   0   1   0

             69        1   0   1   0   1   0
         10.9848       0   1   1   0   0   1

             70        1   0   1   0   0   1
          4.4116       1   1   1   0   0   0

             71        1   0   1   0   0   1
         10.4986       1   1   0   1   0   0

             72        1   0   1   0   0   1
         11.1128       1   1   0   0   1   0

             73        1   0   1   0   0   1
         11.2605       1   1   0   0   0   1

             74        1   0   1   0   0   1
         11.5014       1   0   1   1   0   0

             75        1   0   1   0   0   1
         11.5014       1   0   1   0   1   0

             76        1   0   1   0   0   1
         11.0350       1   0   1   0   0   1

             77        1   0   1   0   0   1
         11.1128       0   1   1   1   0   0

             78        1   0   1   0   0   1
         10.4986       0   1   1   0   1   0

             79        1   0   1   0   0   1
         11.2605       0   1   1   0   0   1

             80        1   0   0   1   1   0
         11.4200       1   1   1   0   0   0

             81        1   0   0   1   0   1
         10.8058       1   1   1   0   0   0

             82        1   0   0   0   1   1
         11.4200       1   1   1   0   0   0

             83        0   1   1   1   0   0
          5.0257       1   1   1   0   0   0

             84        0   1   1   1   0   0
         11.2605       1   1   0   1   0   0

             85        0   1   1   1   0   0
         10.9848       1   1   0   0   1   0

             86        0   1   1   1   0   0
         11.3559       1   1   0   0   0   1

             87        0   1   1   1   0   0
         12.2458       1   0   1   1   0   0

             88        0   1   1   1   0   0
         11.3559       1   0   1   0   1   0

             89        0   1   1   1   0   0
         11.1128       1   0   1   0   0   1

             90        0   1   1   1   0   0
         13.0055       0   1   1   1   0   0

             91        0   1   1   1   0   0
         11.5014       0   1   1   0   1   0

             92        0   1   1   1   0   0
         12.4867       0   1   1   0   0   1

             93        0   1   1   0   1   0
          4.4116       1   1   1   0   0   0

             94        0   1   1   0   1   0
         10.4986       1   1   0   1   0   0

             95        0   1   1   0   1   0
         11.2605       1   1   0   0   1   0

             96        0   1   1   0   1   0
         11.1128       1   1   0   0   0   1

             97        0   1   1   0   1   0
         11.1128       1   0   1   1   0   0

             98        0   1   1   0   1   0
         11.2605       1   0   1   0   1   0

             99        0   1   1   0   1   0
         10.4986       1   0   1   0   0   1

            100        0   1   1   0   1   0
         11.5014       0   1   1   1   0   0

            101        0   1   1   0   1   0
         11.0350       0   1   1   0   1   0

            102        0   1   1   0   1   0
         11.5014       0   1   1   0   0   1

            103        0   1   1   0   0   1
          5.0257       1   1   1   0   0   0

            104        0   1   1   0   0   1
         11.1128       1   1   0   1   0   0

            105        0   1   1   0   0   1
         11.3559       1   1   0   0   1   0

            106        0   1   1   0   0   1
         12.2458       1   1   0   0   0   1

            107        0   1   1   0   0   1
         11.3559       1   0   1   1   0   0

            108        0   1   1   0   0   1
         10.9848       1   0   1   0   1   0

            109        0   1   1   0   0   1
         11.2605       1   0   1   0   0   1

            110        0   1   1   0   0   1
         12.4867       0   1   1   1   0   0

            111        0   1   1   0   0   1
         11.5014       0   1   1   0   1   0

            112        0   1   1   0   0   1
         13.0055       0   1   1   0   0   1

            113        0   1   0   1   1   0
         10.8058       1   1   1   0   0   0

            114        0   1   0   1   0   1
         11.4200       1   1   1   0   0   0

            115        0   1   0   0   1   1
         11.4200       1   1   1   0   0   0

            116        0   0   1   1   1   0
         11.4200       1   1   1   0   0   0

            117        0   0   1   1   0   1
         11.4200       1   1   1   0   0   0

            118        0   0   1   0   1   1
         10.8058       1   1   1   0   0   0

  STATE       ENERGY (EV)        Q.N.  SPIN   SYMMETRY              POLARIZATION
         ABSOLUTE     RELATIVE                                X           Y           Z

    1+   -0.087561    0.000000     1+  SINGLET     A1g 
    2     4.358098    4.445659     1   TRIPLET     A2u 
    3     4.386498    4.474060     1   TRIPLET     Eu  
    5     4.420366    4.507928     1   SINGLET     Eu  
    7     4.497551    4.585112     1   SINGLET     A2u 
    8     4.738655    4.826216     1   TRIPLET     T1u 
   11     4.757588    4.845150     1   TRIPLET     T2u 
   14     4.826670    4.914232     1   SINGLET     T2u 
   17     5.780036    5.867598     1   SINGLET     T1u       2.2210      2.2210      2.2210
   20    10.162562   10.250123     1   QUINTET     A1g 
   21    10.190962   10.278523     1   QUINTET     Eg  
   23    10.441610   10.529171     1   TRIPLET     A2g 
   24    10.459589   10.547150     1   TRIPLET     Eg  
   26    10.543119   10.630680     1   QUINTET     T2g 
   29    10.562052   10.649614     1   QUINTET     T1g 
   32    10.589540   10.677101     1   SINGLET     Eg  
   34    10.651720   10.739281     2   SINGLET     A1g 
   35    10.799852   10.887413     2   TRIPLET     Eg  
   37    10.818793   10.906354     1   TRIPLET     T1g 
   40    10.822051   10.909612     1   TRIPLET     A1g 
   41    10.845373   10.932935     1   TRIPLET     T2g 
   44    10.938464   11.026026     3   SINGLET     A1g 
   45    10.938677   11.026239     2   TRIPLET     T1g 
   48    10.950548   11.038109     2   TRIPLET     T2g 
   51    10.986490   11.074052     2   SINGLET     Eg  
   53    11.006134   11.093696     1   SINGLET     T1g 
   56    11.020306   11.107867     3   TRIPLET     Eg  
   58    11.044486   11.132047     2   TRIPLET     A2g 
   59    11.068316   11.155878     3   TRIPLET     T1g 
   62    11.155005   11.242566     2   SINGLET     T1g 
   65    11.203754   11.291315     4   TRIPLET     T1g 
   68    11.254766   11.342328     3   SINGLET     Eg  
   70    11.343876   11.431438     1   SINGLET     T2g 
   73    11.348190   11.435751     4   SINGLET     A1g 
   74    11.372438   11.459999     3   TRIPLET     T2g 
   77    11.418419   11.505981     2   SINGLET     T2g 
   80    11.421666   11.509227     4   TRIPLET     T2g 
   83    11.608569   11.696130     3   SINGLET     T1g 
   86    11.690191   11.777753     5   TRIPLET     T1g 
   89    11.761749   11.849310     3   SINGLET     T2g 
   92    11.861121   11.948682     4   SINGLET     T1g 
   95    11.951913   12.039475     4   SINGLET     T2g 
   98    12.022216   12.109777     5   TRIPLET     T2g 
  101    12.279497   12.367059     6   TRIPLET     T1g 
  104    12.534992   12.622554     5   SINGLET     T2g 
  107    12.678090   12.765651     7   TRIPLET     T1g 
  110    12.757462   12.845023     1   SINGLET     A2g 
  111    13.018749   13.106310     4   SINGLET     Eg  
  113    13.031027   13.118588     6   SINGLET     T2g 
  116    13.287975   13.375537     5   SINGLET     Eg  
  118    13.578031   13.665593     5   SINGLET     A1g 
           The "+" symbol indicates the root used.
 *******************************************************************************
 ** Cite this program as: MOPAC2016, Version: 21.298M, James J. P. Stewart,   **
 **                           web-site: HTTP://OpenMOPAC.net.                 **
 *******************************************************************************
 **                                                                           **
 **                                MOPAC2016                                  **
 **                                                                           **
 *******************************************************************************

                              PM7 CALCULATION RESULTS

 *******************************************************************************
 *  CALCULATION DONE:                                Fri Oct 29 13:45:45 2021  *
 *  CISD       - C.I. USES 1 AND 2 ELECTRON EXCITATIONS
 *  C.I.=6     - 6 M.O.S TO BE USED IN C.I.
 *  ROOT       - IN A C.I. CALCULATION, ROOT "1" TO BE OPTIMIZED.
 *  1SCF       - DO 1 SCF AND THEN STOP 
 *  T=         - A TIME OF 172800.0 SECONDS REQUESTED
 *  DUMP=N     - RESTART FILE WRITTEN EVERY 7200.0 SECONDS REQUESTED
 *  MECI       - M.E.C.I. WORKING TO BE PRINTED
 *******************************************************************************
1SCF C.I.=6 CISD MECI ROOT=1
 comment1
 comment2
   ATOM   CHEMICAL          X               Y               Z
  NUMBER   SYMBOL      (ANGSTROMS)     (ANGSTROMS)     (ANGSTROMS)
 
     1      Cr          0.00000000  *   0.00000000  *   0.00000000  *
     2       C          1.91000000  *   0.00000000  *   0.00000000  *
     3       C         -1.91000000  *   0.00000000  *   0.00000000  *
     4       C          0.00000000  *   1.91000000  *   0.00000000  *
     5       C          0.00000000  *  -1.91000000  *   0.00000000  *
     6       C          0.00000000  *   0.00000000  *   1.91000000  *
     7       C          0.00000000  *   0.00000000  *  -1.91000000  *
     8       O          3.05000000  *   0.00000000  *   0.00000000  *
     9       O         -3.05000000  *   0.00000000  *   0.00000000  *
    10       O          0.00000000  *   3.05000000  *   0.00000000  *
    11       O          0.00000000  *  -3.05000000  *   0.00000000  *
    12       O          0.00000000  *   0.00000000  *   3.05000000  *
    13       O          0.00000000  *   0.00000000  *  -3.05000000  *
 


          CARTESIAN COORDINATES 

    NO.       ATOM           X           Y           Z

     1        Cr          0.0000      0.0000      0.0000
     2         C          1.9100      0.0000      0.0000
     3         C         -1.9100      0.0000      0.0000
     4         C          0.0000      1.9100      0.0000
     5         C          0.0000     -1.9100      0.0000
     6         C          0.0000      0.0000      1.9100
     7         C          0.0000      0.0000     -1.9100
     8         O          3.0500      0.0000      0.0000
     9         O         -3.0500      0.0000      0.0000
    10         O          0.0000      3.0500      0.0000
    11         O          0.0000     -3.0500      0.0000
    12         O          0.0000      0.0000      3.0500
    13         O          0.0000      0.0000     -3.0500

 General Reference for PM7:
 "Optimization of Parameters for Semiempirical Methods VI: More Modifications to the 
 NDDO Approximations and Re-optimization of Parameters", J. J. P. Stewart, J. Mol. Mod., 1:32, 19 (2013)
 https://link.springer.com/article/10.1007/s00894-012-1667-x

           Empirical Formula: C6 O6 Cr  =    13 atoms



      MOLECULAR POINT GROUP   :   Oh  


      RHF CALCULATION, NO. OF DOUBLY OCCUPIED LEVELS = 33



 ALL CONVERGERS ARE NOW FORCED ON
 SHIFT=10, PULAY ON, CAMP-KING ON
 AND ITERATION COUNTER RESET



 -------------------------------------------------------------------------------
 1SCF C.I.=6 CISD MECI ROOT=1
 comment1
 comment2


     1SCF WAS SPECIFIED, SO BFGS WAS NOT USED                 
     SCF FIELD WAS ACHIEVED                                   


                              PM7 CALCULATION
                                                       MOPAC2016 (Version: 21.298M)
                                                       Fri Oct 29 13:45:46 2021




          FINAL HEAT OF FORMATION =       -205.75414 KCAL/MOL =    -860.87533 KJ/MOL


          COSMO AREA              =        198.98 SQUARE ANGSTROMS
          COSMO VOLUME            =        200.21 CUBIC ANGSTROMS

          IONIZATION POTENTIAL    =          9.960464 EV          STATE:   1 SINGLET A1g
          HOMO LUMO ENERGIES (EV) =         -9.960 -0.191
          NO. OF FILLED LEVELS    =         33
          MOLECULAR WEIGHT        =        220.0584         POINT GROUP:  Oh  

          MOLECULAR DIMENSIONS (Angstroms)

            Atom       Atom       Distance
            O     9    O     8     6.10000
            O    11    O    10     6.10000
            O    13    O    12     6.10000


          SCF CALCULATIONS        =          1
 
          WALL-CLOCK TIME         =          1.801 SECONDS
          COMPUTATION TIME        =          6.484 SECONDS




   ATOM   CHEMICAL          X               Y               Z
  NUMBER   SYMBOL      (ANGSTROMS)     (ANGSTROMS)     (ANGSTROMS)
 
     1      Cr          0.00000000  *   0.00000000  *   0.00000000  *
     2       C          1.91000000  *   0.00000000  *   0.00000000  *
     3       C         -1.91000000  *   0.00000000  *   0.00000000  *
     4       C          0.00000000  *   1.91000000  *   0.00000000  *
     5       C          0.00000000  *  -1.91000000  *   0.00000000  *
     6       C          0.00000000  *   0.00000000  *   1.91000000  *
     7       C          0.00000000  *   0.00000000  *  -1.91000000  *
     8       O          3.05000000  *   0.00000000  *   0.00000000  *
     9       O         -3.05000000  *   0.00000000  *   0.00000000  *
    10       O          0.00000000  *   3.05000000  *   0.00000000  *
    11       O          0.00000000  *  -3.05000000  *   0.00000000  *
    12       O          0.00000000  *   0.00000000  *   3.05000000  *
    13       O          0.00000000  *   0.00000000  *  -3.05000000  *

                             CARTESIAN COORDINATES

   1   Cr        0.000000000     0.000000000     0.000000000
   2    C        1.910000000     0.000000000     0.000000000
   3    C       -1.910000000     0.000000000     0.000000000
   4    C        0.000000000     1.910000000     0.000000000
   5    C        0.000000000    -1.910000000     0.000000000
   6    C        0.000000000     0.000000000     1.910000000
   7    C        0.000000000     0.000000000    -1.910000000
   8    O        3.050000000     0.000000000     0.000000000
   9    O       -3.050000000     0.000000000     0.000000000
  10    O        0.000000000     3.050000000     0.000000000
  11    O        0.000000000    -3.050000000     0.000000000
  12    O        0.000000000     0.000000000     3.050000000
  13    O        0.000000000     0.000000000    -3.050000000


           Empirical Formula: C6 O6 Cr  =    13 atoms



      MOLECULAR POINT GROUP   :   Oh  


                  EIGENVALUES  
 -34.33069 -34.33069 -33.55180 -33.55180 -33.55180 -33.43774 -23.17591 -22.33613
 -22.33613 -20.39583 -20.39583 -20.39583 -17.93917 -17.93917 -17.93917 -16.26866
 -15.94356 -15.94356 -15.94356 -15.73024 -15.73024 -15.73024 -15.57391 -15.57391
 -15.57391 -14.54492 -14.54492 -12.65217 -12.65217 -12.65217  -9.96046  -9.96046
  -9.96046  -0.19115  -0.19115  -0.19115   0.03777   0.03777   0.03777   0.61471
   0.61471   0.61471   2.48259   2.48259   2.48259   2.52524   4.04108   4.04108
   4.55203   4.55203   4.55203   6.07408   6.07408   7.70783  76.28449  76.28449
  76.28449


              NET ATOMIC CHARGES AND DIPOLE CONTRIBUTIONS

  ATOM NO.   TYPE          CHARGE      No. of ELECS.   s-Pop       p-Pop       d-Pop       
    1         Cr           0.322444        5.6776     0.38534     0.03331     5.25891
    2          C           0.354578        3.6454     1.55125     2.09418
    3          C           0.354578        3.6454     1.55125     2.09418
    4          C           0.354578        3.6454     1.55125     2.09418
    5          C           0.354578        3.6454     1.55125     2.09418
    6          C           0.354578        3.6454     1.55125     2.09418
    7          C           0.354578        3.6454     1.55125     2.09418
    8          O          -0.408319        6.4083     1.83937     4.56895
    9          O          -0.408319        6.4083     1.83937     4.56895
   10          O          -0.408319        6.4083     1.83937     4.56895
   11          O          -0.408319        6.4083     1.83937     4.56895
   12          O          -0.408319        6.4083     1.83937     4.56895
   13          O          -0.408319        6.4083     1.83937     4.56895
 DIPOLE           X         Y         Z       TOTAL
 POINT-CHG.    -0.000    -0.000    -0.000     0.000
 HYBRID         0.000     0.000     0.000     0.000
 SUM           -0.000    -0.000    -0.000     0.000


          ATOMIC ORBITAL ELECTRON POPULATIONS

     Atom    s        px        py        pz      x^2-y^2     xz        z^2       yz        xy
    1 Cr   0.38534   0.01110   0.01110   0.01110   0.57628   1.36878   0.57628   1.36878   1.36878
    2  C   1.55125   0.93108   0.58155   0.58155
    3  C   1.55125   0.93108   0.58155   0.58155
    4  C   1.55125   0.58155   0.93108   0.58155
    5  C   1.55125   0.58155   0.93108   0.58155
    6  C   1.55125   0.58155   0.58155   0.93108
    7  C   1.55125   0.58155   0.58155   0.93108
    8  O   1.83937   1.40181   1.58357   1.58357
    9  O   1.83937   1.40181   1.58357   1.58357
   10  O   1.83937   1.58357   1.40181   1.58357
   11  O   1.83937   1.58357   1.40181   1.58357
   12  O   1.83937   1.58357   1.58357   1.40181
   13  O   1.83937   1.58357   1.58357   1.40181


          MULTI-ELECTRON CONFIGURATION INTERACTION CALCULATION


          COMPONENT OF SPIN  =  0.0


           NO OF CONFIGURATIONS CONSIDERED = 118

 CONFIGURATIONS CONSIDERED IN C.I.      
 M.O. NUMBER :        31  32  33  34  35  36
          ENERGY

              1        1   1   1   0   0   0
          0.0000       1   1   1   0   0   0

              2        1   1   1   0   0   0
          4.4116       1   1   0   1   0   0

              3        1   1   1   0   0   0
          5.0257       1   1   0   0   1   0

              4        1   1   1   0   0   0
          5.0257       1   1   0   0   0   1

              5        1   1   1   0   0   0
          5.0257       1   0   1   1   0   0

              6        1   1   1   0   0   0
          5.0257       1   0   1   0   1   0

              7        1   1   1   0   0   0
          4.4116       1   0   1   0   0   1

              8        1   1   1   0   0   0
         11.4200       1   0   0   1   1   0

              9        1   1   1   0   0   0
         10.8058       1   0   0   1   0   1

             10        1   1   1   0   0   0
         11.4200       1   0   0   0   1   1

             11        1   1   1   0   0   0
          5.0257       0   1   1   1   0   0

             12        1   1   1   0   0   0
          4.4116       0   1   1   0   1   0

             13        1   1   1   0   0   0
          5.0257       0   1   1   0   0   1

             14        1   1   1   0   0   0
         10.8058       0   1   0   1   1   0

             15        1   1   1   0   0   0
         11.4200       0   1   0   1   0   1

             16        1   1   1   0   0   0
         11.4200       0   1   0   0   1   1

             17        1   1   1   0   0   0
         11.4200       0   0   1   1   1   0

             18        1   1   1   0   0   0
         11.4200       0   0   1   1   0   1

             19        1   1   1   0   0   0
         10.8058       0   0   1   0   1   1

             20        1   1   0   1   0   0
          4.4116       1   1   1   0   0   0

             21        1   1   0   1   0   0
         11.0350       1   1   0   1   0   0

             22        1   1   0   1   0   0
         11.5014       1   1   0   0   1   0

             23        1   1   0   1   0   0
         11.5014       1   1   0   0   0   1

             24        1   1   0   1   0   0
         11.2605       1   0   1   1   0   0

             25        1   1   0   1   0   0
         11.1128       1   0   1   0   1   0

             26        1   1   0   1   0   0
         10.4986       1   0   1   0   0   1

             27        1   1   0   1   0   0
         11.2605       0   1   1   1   0   0

             28        1   1   0   1   0   0
         10.4986       0   1   1   0   1   0

             29        1   1   0   1   0   0
         11.1128       0   1   1   0   0   1

             30        1   1   0   0   1   0
          5.0257       1   1   1   0   0   0

             31        1   1   0   0   1   0
         11.5014       1   1   0   1   0   0

             32        1   1   0   0   1   0
         13.0055       1   1   0   0   1   0

             33        1   1   0   0   1   0
         12.4867       1   1   0   0   0   1

             34        1   1   0   0   1   0
         11.3559       1   0   1   1   0   0

             35        1   1   0   0   1   0
         12.2458       1   0   1   0   1   0

             36        1   1   0   0   1   0
         11.1128       1   0   1   0   0   1

             37        1   1   0   0   1   0
         10.9848       0   1   1   1   0   0

             38        1   1   0   0   1   0
         11.2605       0   1   1   0   1   0

             39        1   1   0   0   1   0
         11.3559       0   1   1   0   0   1

             40        1   1   0   0   0   1
          5.0257       1   1   1   0   0   0

             41        1   1   0   0   0   1
         11.5014       1   1   0   1   0   0

             42        1   1   0   0   0   1
         12.4867       1   1   0   0   1   0

             43        1   1   0   0   0   1
         13.0055       1   1   0   0   0   1

             44        1   1   0   0   0   1
         10.9848       1   0   1   1   0   0

             45        1   1   0   0   0   1
         11.3559       1   0   1   0   1   0

             46        1   1   0   0   0   1
         11.2605       1   0   1   0   0   1

             47        1   1   0   0   0   1
         11.3559       0   1   1   1   0   0

             48        1   1   0   0   0   1
         11.1128       0   1   1   0   1   0

             49        1   1   0   0   0   1
         12.2458       0   1   1   0   0   1

             50        1   0   1   1   0   0
          5.0257       1   1   1   0   0   0

             51        1   0   1   1   0   0
         11.2605       1   1   0   1   0   0

             52        1   0   1   1   0   0
         11.3559       1   1   0   0   1   0

             53        1   0   1   1   0   0
         10.9848       1   1   0   0   0   1

             54        1   0   1   1   0   0
         13.0055       1   0   1   1   0   0

             55        1   0   1   1   0   0
         12.4867       1   0   1   0   1   0

             56        1   0   1   1   0   0
         11.5014       1   0   1   0   0   1

             57        1   0   1   1   0   0
         12.2458       0   1   1   1   0   0

             58        1   0   1   1   0   0
         11.1128       0   1   1   0   1   0

             59        1   0   1   1   0   0
         11.3559       0   1   1   0   0   1

             60        1   0   1   0   1   0
          5.0257       1   1   1   0   0   0

             61        1   0   1   0   1   0
         11.1128       1   1   0   1   0   0

             62        1   0   1   0   1   0
         12.2458       1   1   0   0   1   0

             63        1   0   1   0   1   0
         11.3559       1   1   0   0   0   1

             64        1   0   1   0   1   0
         12.4867       1   0   1   1   0   0

             65        1   0   1   0   1   0
         13.0055       1   0   1   0   1   0

             66        1   0   1   0   1   0
         11.5014       1   0   1   0   0   1

             67        1   0   1   0   1   0
         11.3559       0   1   1   1   0   0

             68        1   0   1   0   1   0
         11.2605       0   1   1   0   1   0

             69        1   0   1   0   1   0
         10.9848       0   1   1   0   0   1

             70        1   0   1   0   0   1
          4.4116       1   1   1   0   0   0

             71        1   0   1   0   0   1
         10.4986       1   1   0   1   0   0

             72        1   0   1   0   0   1
         11.1128       1   1   0   0   1   0

             73        1   0   1   0   0   1
         11.2605       1   1   0   0   0   1

             74        1   0   1   0   0   1
         11.5014       1   0   1   1   0   0

             75        1   0   1   0   0   1
         11.5014       1   0   1   0   1   0

             76        1   0   1   0   0   1
         11.0350       1   0   1   0   0   1

             77        1   0   1   0   0   1
         11.1128       0   1   1   1   0   0

             78        1   0   1   0   0   1
         10.4986       0   1   1   0   1   0

             79        1   0   1   0   0   1
         11.2605       0   1   1   0   0   1

             80        1   0   0   1   1   0
         11.4200       1   1   1   0   0   0

             81        1   0   0   1   0   1
         10.8058       1   1   1   0   0   0

             82        1   0   0   0   1   1
         11.4200       1   1   1   0   0   0

             83        0   1   1   1   0   0
          5.0257       1   1   1   0   0   0

             84        0   1   1   1   0   0
         11.2605       1   1   0   1   0   0

             85        0   1   1   1   0   0
         10.9848       1   1   0   0   1   0

             86        0   1   1   1   0   0
         11.3559       1   1   0   0   0   1

             87        0   1   1   1   0   0
         12.2458       1   0   1   1   0   0

             88        0   1   1   1   0   0
         11.3559       1   0   1   0   1   0

             89        0   1   1   1   0   0
         11.1128       1   0   1   0   0   1

             90        0   1   1   1   0   0
         13.0055       0   1   1   1   0   0

             91        0   1   1   1   0   0
         11.5014       0   1   1   0   1   0

             92        0   1   1   1   0   0
         12.4867       0   1   1   0   0   1

             93        0   1   1   0   1   0
          4.4116       1   1   1   0   0   0

             94        0   1   1   0   1   0
         10.4986       1   1   0   1   0   0

             95        0   1   1   0   1   0
         11.2605       1   1   0   0   1   0

             96        0   1   1   0   1   0
         11.1128       1   1   0   0   0   1

             97        0   1   1   0   1   0
         11.1128       1   0   1   1   0   0

             98        0   1   1   0   1   0
         11.2605       1   0   1   0   1   0

             99        0   1   1   0   1   0
         10.4986       1   0   1   0   0   1

            100        0   1   1   0   1   0
         11.5014       0   1   1   1   0   0

            101        0   1   1   0   1   0
         11.0350       0   1   1   0   1   0

            102        0   1   1   0   1   0
         11.5014       0   1   1   0   0   1

            103        0   1   1   0   0   1
          5.0257       1   1   1   0   0   0

            104        0   1   1   0   0   1
         11.1128       1   1   0   1   0   0

            105        0   1   1   0   0   1
         11.3559       1   1   0   0   1   0

            106        0   1   1   0   0   1
         12.2458       1   1   0   0   0   1

            107        0   1   1   0   0   1
         11.3559       1   0   1   1   0   0

            108        0   1   1   0   0   1
         10.9848       1   0   1   0   1   0

            109        0   1   1   0   0   1
         11.2605       1   0   1   0   0   1

            110        0   1   1   0   0   1
         12.4867       0   1   1   1   0   0

            111        0   1   1   0   0   1
         11.5014       0   1   1   0   1   0

            112        0   1   1   0   0   1
         13.0055       0   1   1   0   0   1

            113        0   1   0   1   1   0
         10.8058       1   1   1   0   0   0

            114        0   1   0   1   0   1
         11.4200       1   1   1   0   0   0

            115        0   1   0   0   1   1
         11.4200       1   1   1   0   0   0

            116        0   0   1   1   1   0
         11.4200       1   1   1   0   0   0

            117        0   0   1   1   0   1
         11.4200       1   1   1   0   0   0

            118        0   0   1   0   1   1
         10.8058       1   1   1   0   0   0

  STATE       ENERGY (EV)        Q.N.  SPIN   SYMMETRY              POLARIZATION
         ABSOLUTE     RELATIVE                                X           Y           Z

    1+   -0.087561    0.000000     1+  SINGLET     A1g 
    2     4.358098    4.445659     1   TRIPLET     A2u 
    3     4.386498    4.474060     1   TRIPLET     Eu  
    5     4.420366    4.507928     1   SINGLET     Eu  
    7     4.497551    4.585112     1   SINGLET     A2u 
    8     4.738655    4.826216     1   TRIPLET     T1u 
   11     4.757588    4.845150     1   TRIPLET     T2u 
   14     4.826670    4.914232     1   SINGLET     T2u 
   17     5.780036    5.867598     1   SINGLET     T1u       2.2210      2.2210      2.2210
   20    10.162562   10.250123     1   QUINTET     A1g 
   21    10.190962   10.278523     1   QUINTET     Eg  
   23    10.441610   10.529171     1   TRIPLET     A2g 
   24    10.459589   10.547150     1   TRIPLET     Eg  
   26    10.543119   10.630680     1   QUINTET     T2g 
   29    10.562052   10.649614     1   QUINTET     T1g 
   32    10.589540   10.677101     1   SINGLET     Eg  
   34    10.651720   10.739281     2   SINGLET     A1g 
   35    10.799852   10.887413     2   TRIPLET     Eg  
   37    10.818793   10.906354     1   TRIPLET     T1g 
   40    10.822051   10.909612     1   TRIPLET     A1g 
   41    10.845373   10.932935     1   TRIPLET     T2g 
   44    10.938464   11.026026     3   SINGLET     A1g 
   45    10.938677   11.026239     2   TRIPLET     T1g 
   48    10.950548   11.038109     2   TRIPLET     T2g 
   51    10.986490   11.074052     2   SINGLET     Eg  
   53    11.006134   11.093696     1   SINGLET     T1g 
   56    11.020306   11.107867     3   TRIPLET     Eg  
   58    11.044486   11.132047     2   TRIPLET     A2g 
   59    11.068316   11.155878     3   TRIPLET     T1g 
   62    11.155005   11.242566     2   SINGLET     T1g 
   65    11.203754   11.291315     4   TRIPLET     T1g 
   68    11.254766   11.342328     3   SINGLET     Eg  
   70    11.343876   11.431438     1   SINGLET     T2g 
   73    11.348190   11.435751     4   SINGLET     A1g 
   74    11.372438   11.459999     3   TRIPLET     T2g 
   77    11.418419   11.505981     2   SINGLET     T2g 
   80    11.421666   11.509227     4   TRIPLET     T2g 
   83    11.608569   11.696130     3   SINGLET     T1g 
   86    11.690191   11.777753     5   TRIPLET     T1g 
   89    11.761749   11.849310     3   SINGLET     T2g 
   92    11.861121   11.948682     4   SINGLET     T1g 
   95    11.951913   12.039475     4   SINGLET     T2g 
   98    12.022216   12.109777     5   TRIPLET     T2g 
  101    12.279497   12.367059     6   TRIPLET     T1g 
  104    12.534992   12.622554     5   SINGLET     T2g 
  107    12.678090   12.765651     7   TRIPLET     T1g 
  110    12.757462   12.845023     1   SINGLET     A2g 
  111    13.018749   13.106310     4   SINGLET     Eg  
  113    13.031027   13.118588     6   SINGLET     T2g 
  116    13.287975   13.375537     5   SINGLET     Eg  
  118    13.578031   13.665593     5   SINGLET     A1g 
           The "+" symbol indicates the root used.
 *******************************************************************************
 ** Cite this program as: MOPAC2016, Version: 21.298M, James J. P. Stewart,   **
 **                           web-site: HTTP://OpenMOPAC.net.                 **
 *******************************************************************************
 **                                                                           **
 **                                MOPAC2016                                  **
 **                                                                           **
 *******************************************************************************

                              PM7 CALCULATION RESULTS

 *******************************************************************************
 *  CALCULATION DONE:                                Fri Oct 29 13:45:46 2021  *
 *  CISD       - C.I. USES 1 AND 2 ELECTRON EXCITATIONS
 *  C.I.=6     - 6 M.O.S TO BE USED IN C.I.
 *  ROOT       - IN A C.I. CALCULATION, ROOT "2" TO BE OPTIMIZED.
 *  1SCF       - DO 1 SCF AND THEN STOP 
 *  T=         - A TIME OF 172800.0 SECONDS REQUESTED
 *  DUMP=N     - RESTART FILE WRITTEN EVERY 7200.0 SECONDS REQUESTED
 *  MECI       - M.E.C.I. WORKING TO BE PRINTED
 *******************************************************************************
1SCF C.I.=6 CISD MECI ROOT=2
 comment1
 comment2
   ATOM   CHEMICAL          X               Y               Z
  NUMBER   SYMBOL      (ANGSTROMS)     (ANGSTROMS)     (ANGSTROMS)
 
     1      Cr          0.00000000  *   0.00000000  *   0.00000000  *
     2       C          1.91000000  *   0.00000000  *   0.00000000  *
     3       C         -1.91000000  *   0.00000000  *   0.00000000  *
     4       C          0.00000000  *   1.91000000  *   0.00000000  *
     5       C          0.00000000  *  -1.91000000  *   0.00000000  *
     6       C          0.00000000  *   0.00000000  *   1.91000000  *
     7       C          0.00000000  *   0.00000000  *  -1.91000000  *
     8       O          3.05000000  *   0.00000000  *   0.00000000  *
     9       O         -3.05000000  *   0.00000000  *   0.00000000  *
    10       O          0.00000000  *   3.05000000  *   0.00000000  *
    11       O          0.00000000  *  -3.05000000  *   0.00000000  *
    12       O          0.00000000  *   0.00000000  *   3.05000000  *
    13       O          0.00000000  *   0.00000000  *  -3.05000000  *
 


          CARTESIAN COORDINATES 

    NO.       ATOM           X           Y           Z

     1        Cr          0.0000      0.0000      0.0000
     2         C          1.9100      0.0000      0.0000
     3         C         -1.9100      0.0000      0.0000
     4         C          0.0000      1.9100      0.0000
     5         C          0.0000     -1.9100      0.0000
     6         C          0.0000      0.0000      1.9100
     7         C          0.0000      0.0000     -1.9100
     8         O          3.0500      0.0000      0.0000
     9         O         -3.0500      0.0000      0.0000
    10         O          0.0000      3.0500      0.0000
    11         O          0.0000     -3.0500      0.0000
    12         O          0.0000      0.0000      3.0500
    13         O          0.0000      0.0000     -3.0500

 General Reference for PM7:
 "Optimization of Parameters for Semiempirical Methods VI: More Modifications to the 
 NDDO Approximations and Re-optimization of Parameters", J. J. P. Stewart, J. Mol. Mod., 1:32, 19 (2013)
 https://link.springer.com/article/10.1007/s00894-012-1667-x

           Empirical Formula: C6 O6 Cr  =    13 atoms



      MOLECULAR POINT GROUP   :   Oh  


      RHF CALCULATION, NO. OF DOUBLY OCCUPIED LEVELS = 33



 ALL CONVERGERS ARE NOW FORCED ON
 SHIFT=10, PULAY ON, CAMP-KING ON
 AND ITERATION COUNTER RESET



 -------------------------------------------------------------------------------
 1SCF C.I.=6 CISD MECI ROOT=2
 comment1
 comment2


     1SCF WAS SPECIFIED, SO BFGS WAS NOT USED                 
     SCF FIELD WAS ACHIEVED                                   


                              PM7 CALCULATION
                                                       MOPAC2016 (Version: 21.298M)
                                                       Fri Oct 29 13:45:47 2021




          FINAL HEAT OF FORMATION =       -103.23488 KCAL/MOL =    -431.93475 KJ/MOL


          COSMO AREA              =        198.98 SQUARE ANGSTROMS
          COSMO VOLUME            =        200.21 CUBIC ANGSTROMS

          IONIZATION POTENTIAL    =          9.960464 EV          STATE:   1 TRIPLET A2u
          HOMO LUMO ENERGIES (EV) =         -9.960 -0.191
          NO. OF FILLED LEVELS    =         33
          MOLECULAR WEIGHT        =        220.0584         POINT GROUP:  Oh  

          MOLECULAR DIMENSIONS (Angstroms)

            Atom       Atom       Distance
            O     9    O     8     6.10000
            O    11    O    10     6.10000
            O    13    O    12     6.10000


          SCF CALCULATIONS        =          1
 
          WALL-CLOCK TIME         =          2.824 SECONDS
          COMPUTATION TIME        =         10.164 SECONDS




   ATOM   CHEMICAL          X               Y               Z
  NUMBER   SYMBOL      (ANGSTROMS)     (ANGSTROMS)     (ANGSTROMS)
 
     1      Cr          0.00000000  *   0.00000000  *   0.00000000  *
     2       C          1.91000000  *   0.00000000  *   0.00000000  *
     3       C         -1.91000000  *   0.00000000  *   0.00000000  *
     4       C          0.00000000  *   1.91000000  *   0.00000000  *
     5       C          0.00000000  *  -1.91000000  *   0.00000000  *
     6       C          0.00000000  *   0.00000000  *   1.91000000  *
     7       C          0.00000000  *   0.00000000  *  -1.91000000  *
     8       O          3.05000000  *   0.00000000  *   0.00000000  *
     9       O         -3.05000000  *   0.00000000  *   0.00000000  *
    10       O          0.00000000  *   3.05000000  *   0.00000000  *
    11       O          0.00000000  *  -3.05000000  *   0.00000000  *
    12       O          0.00000000  *   0.00000000  *   3.05000000  *
    13       O          0.00000000  *   0.00000000  *  -3.05000000  *

                             CARTESIAN COORDINATES

   1   Cr        0.000000000     0.000000000     0.000000000
   2    C        1.910000000     0.000000000     0.000000000
   3    C       -1.910000000     0.000000000     0.000000000
   4    C        0.000000000     1.910000000     0.000000000
   5    C        0.000000000    -1.910000000     0.000000000
   6    C        0.000000000     0.000000000     1.910000000
   7    C        0.000000000     0.000000000    -1.910000000
   8    O        3.050000000     0.000000000     0.000000000
   9    O       -3.050000000     0.000000000     0.000000000
  10    O        0.000000000     3.050000000     0.000000000
  11    O        0.000000000    -3.050000000     0.000000000
  12    O        0.000000000     0.000000000     3.050000000
  13    O        0.000000000     0.000000000    -3.050000000


           Empirical Formula: C6 O6 Cr  =    13 atoms



      MOLECULAR POINT GROUP   :   Oh  


                  EIGENVALUES  
 -34.33069 -34.33069 -33.55180 -33.55180 -33.55180 -33.43774 -23.17591 -22.33613
 -22.33613 -20.39583 -20.39583 -20.39583 -17.93917 -17.93917 -17.93917 -16.26866
 -15.94356 -15.94356 -15.94356 -15.73024 -15.73024 -15.73024 -15.57391 -15.57391
 -15.57391 -14.54492 -14.54492 -12.65217 -12.65217 -12.65217  -9.96046  -9.96046
  -9.96046  -0.19115  -0.19115  -0.19115   0.03777   0.03777   0.03777   0.61471
   0.61471   0.61471   2.48259   2.48259   2.48259   2.52524   4.04108   4.04108
   4.55203   4.55203   4.55203   6.07408   6.07408   7.70783  76.28449  76.28449
  76.28449


              NET ATOMIC CHARGES AND DIPOLE CONTRIBUTIONS

  ATOM NO.   TYPE          CHARGE      No. of ELECS.   s-Pop       p-Pop       d-Pop       
    1         Cr           0.805454        5.1945     0.38534     0.03352     4.77569
    2          C           0.241316        3.7587     1.55336     2.20533
    3          C           0.241316        3.7587     1.55336     2.20533
    4          C           0.241316        3.7587     1.55336     2.20533
    5          C           0.241316        3.7587     1.55336     2.20533
    6          C           0.241316        3.7587     1.55336     2.20533
    7          C           0.241316        3.7587     1.55336     2.20533
    8          O          -0.375558        6.3756     1.83938     4.53617
    9          O          -0.375558        6.3756     1.83938     4.53617
   10          O          -0.375558        6.3756     1.83938     4.53617
   11          O          -0.375558        6.3756     1.83938     4.53617
   12          O          -0.375558        6.3756     1.83938     4.53617
   13          O          -0.375558        6.3756     1.83938     4.53617
 DIPOLE           X         Y         Z       TOTAL
 POINT-CHG.    -0.000    -0.000    -0.000     0.000
 HYBRID         0.000     0.000     0.000     0.000
 SUM           -0.000    -0.000    -0.000     0.000


          ATOMIC ORBITAL ELECTRON POPULATIONS

     Atom    s        px        py        pz      x^2-y^2     xz        z^2       yz        xy
    1 Cr   0.38534   0.01117   0.01117   0.01117   0.57628   1.20771   0.57628   1.20771   1.20771
    2  C   1.55336   0.93129   0.63702   0.63702
    3  C   1.55336   0.93129   0.63702   0.63702
    4  C   1.55336   0.63702   0.93129   0.63702
    5  C   1.55336   0.63702   0.93129   0.63702
    6  C   1.55336   0.63702   0.63702   0.93129
    7  C   1.55336   0.63702   0.63702   0.93129
    8  O   1.83938   1.40234   1.56692   1.56692
    9  O   1.83938   1.40234   1.56692   1.56692
   10  O   1.83938   1.56692   1.40234   1.56692
   11  O   1.83938   1.56692   1.40234   1.56692
   12  O   1.83938   1.56692   1.56692   1.40234
   13  O   1.83938   1.56692   1.56692   1.40234


          MULTI-ELECTRON CONFIGURATION INTERACTION CALCULATION


          COMPONENT OF SPIN  =  0.0


           NO OF CONFIGURATIONS CONSIDERED = 118

 CONFIGURATIONS CONSIDERED IN C.I.      
 M.O. NUMBER :        31  32  33  34  35  36
          ENERGY

              1        1   1   1   0   0   0
          0.0000       1   1   1   0   0   0

              2        1   1   1   0   0   0
          4.4116       1   1   0   1   0   0

              3        1   1   1   0   0   0
          5.0257       1   1   0   0   1   0

              4        1   1   1   0   0   0
          5.0257       1   1   0   0   0   1

              5        1   1   1   0   0   0
          5.0257       1   0   1   1   0   0

              6        1   1   1   0   0   0
          5.0257       1   0   1   0   1   0

              7        1   1   1   0   0   0
          4.4116       1   0   1   0   0   1

              8        1   1   1   0   0   0
         11.4200       1   0   0   1   1   0

              9        1   1   1   0   0   0
         10.8058       1   0   0   1   0   1

             10        1   1   1   0   0   0
         11.4200       1   0   0   0   1   1

             11        1   1   1   0   0   0
          5.0257       0   1   1   1   0   0

             12        1   1   1   0   0   0
          4.4116       0   1   1   0   1   0

             13        1   1   1   0   0   0
          5.0257       0   1   1   0   0   1

             14        1   1   1   0   0   0
         10.8058       0   1   0   1   1   0

             15        1   1   1   0   0   0
         11.4200       0   1   0   1   0   1

             16        1   1   1   0   0   0
         11.4200       0   1   0   0   1   1

             17        1   1   1   0   0   0
         11.4200       0   0   1   1   1   0

             18        1   1   1   0   0   0
         11.4200       0   0   1   1   0   1

             19        1   1   1   0   0   0
         10.8058       0   0   1   0   1   1

             20        1   1   0   1   0   0
          4.4116       1   1   1   0   0   0

             21        1   1   0   1   0   0
         11.0350       1   1   0   1   0   0

             22        1   1   0   1   0   0
         11.5014       1   1   0   0   1   0

             23        1   1   0   1   0   0
         11.5014       1   1   0   0   0   1

             24        1   1   0   1   0   0
         11.2605       1   0   1   1   0   0

             25        1   1   0   1   0   0
         11.1128       1   0   1   0   1   0

             26        1   1   0   1   0   0
         10.4986       1   0   1   0   0   1

             27        1   1   0   1   0   0
         11.2605       0   1   1   1   0   0

             28        1   1   0   1   0   0
         10.4986       0   1   1   0   1   0

             29        1   1   0   1   0   0
         11.1128       0   1   1   0   0   1

             30        1   1   0   0   1   0
          5.0257       1   1   1   0   0   0

             31        1   1   0   0   1   0
         11.5014       1   1   0   1   0   0

             32        1   1   0   0   1   0
         13.0055       1   1   0   0   1   0

             33        1   1   0   0   1   0
         12.4867       1   1   0   0   0   1

             34        1   1   0   0   1   0
         11.3559       1   0   1   1   0   0

             35        1   1   0   0   1   0
         12.2458       1   0   1   0   1   0

             36        1   1   0   0   1   0
         11.1128       1   0   1   0   0   1

             37        1   1   0   0   1   0
         10.9848       0   1   1   1   0   0

             38        1   1   0   0   1   0
         11.2605       0   1   1   0   1   0

             39        1   1   0   0   1   0
         11.3559       0   1   1   0   0   1

             40        1   1   0   0   0   1
          5.0257       1   1   1   0   0   0

             41        1   1   0   0   0   1
         11.5014       1   1   0   1   0   0

             42        1   1   0   0   0   1
         12.4867       1   1   0   0   1   0

             43        1   1   0   0   0   1
         13.0055       1   1   0   0   0   1

             44        1   1   0   0   0   1
         10.9848       1   0   1   1   0   0

             45        1   1   0   0   0   1
         11.3559       1   0   1   0   1   0

             46        1   1   0   0   0   1
         11.2605       1   0   1   0   0   1

             47        1   1   0   0   0   1
         11.3559       0   1   1   1   0   0

             48        1   1   0   0   0   1
         11.1128       0   1   1   0   1   0

             49        1   1   0   0   0   1
         12.2458       0   1   1   0   0   1

             50        1   0   1   1   0   0
          5.0257       1   1   1   0   0   0

             51        1   0   1   1   0   0
         11.2605       1   1   0   1   0   0

             52        1   0   1   1   0   0
         11.3559       1   1   0   0   1   0

             53        1   0   1   1   0   0
         10.9848       1   1   0   0   0   1

             54        1   0   1   1   0   0
         13.0055       1   0   1   1   0   0

             55        1   0   1   1   0   0
         12.4867       1   0   1   0   1   0

             56        1   0   1   1   0   0
         11.5014       1   0   1   0   0   1

             57        1   0   1   1   0   0
         12.2458       0   1   1   1   0   0

             58        1   0   1   1   0   0
         11.1128       0   1   1   0   1   0

             59        1   0   1   1   0   0
         11.3559       0   1   1   0   0   1

             60        1   0   1   0   1   0
          5.0257       1   1   1   0   0   0

             61        1   0   1   0   1   0
         11.1128       1   1   0   1   0   0

             62        1   0   1   0   1   0
         12.2458       1   1   0   0   1   0

             63        1   0   1   0   1   0
         11.3559       1   1   0   0   0   1

             64        1   0   1   0   1   0
         12.4867       1   0   1   1   0   0

             65        1   0   1   0   1   0
         13.0055       1   0   1   0   1   0

             66        1   0   1   0   1   0
         11.5014       1   0   1   0   0   1

             67        1   0   1   0   1   0
         11.3559       0   1   1   1   0   0

             68        1   0   1   0   1   0
         11.2605       0   1   1   0   1   0

             69        1   0   1   0   1   0
         10.9848       0   1   1   0   0   1

             70        1   0   1   0   0   1
          4.4116       1   1   1   0   0   0

             71        1   0   1   0   0   1
         10.4986       1   1   0   1   0   0

             72        1   0   1   0   0   1
         11.1128       1   1   0   0   1   0

             73        1   0   1   0   0   1
         11.2605       1   1   0   0   0   1

             74        1   0   1   0   0   1
         11.5014       1   0   1   1   0   0

             75        1   0   1   0   0   1
         11.5014       1   0   1   0   1   0

             76        1   0   1   0   0   1
         11.0350       1   0   1   0   0   1

             77        1   0   1   0   0   1
         11.1128       0   1   1   1   0   0

             78        1   0   1   0   0   1
         10.4986       0   1   1   0   1   0

             79        1   0   1   0   0   1
         11.2605       0   1   1   0   0   1

             80        1   0   0   1   1   0
         11.4200       1   1   1   0   0   0

             81        1   0   0   1   0   1
         10.8058       1   1   1   0   0   0

             82        1   0   0   0   1   1
         11.4200       1   1   1   0   0   0

             83        0   1   1   1   0   0
          5.0257       1   1   1   0   0   0

             84        0   1   1   1   0   0
         11.2605       1   1   0   1   0   0

             85        0   1   1   1   0   0
         10.9848       1   1   0   0   1   0

             86        0   1   1   1   0   0
         11.3559       1   1   0   0   0   1

             87        0   1   1   1   0   0
         12.2458       1   0   1   1   0   0

             88        0   1   1   1   0   0
         11.3559       1   0   1   0   1   0

             89        0   1   1   1   0   0
         11.1128       1   0   1   0   0   1

             90        0   1   1   1   0   0
         13.0055       0   1   1   1   0   0

             91        0   1   1   1   0   0
         11.5014       0   1   1   0   1   0

             92        0   1   1   1   0   0
         12.4867       0   1   1   0   0   1

             93        0   1   1   0   1   0
          4.4116       1   1   1   0   0   0

             94        0   1   1   0   1   0
         10.4986       1   1   0   1   0   0

             95        0   1   1   0   1   0
         11.2605       1   1   0   0   1   0

             96        0   1   1   0   1   0
         11.1128       1   1   0   0   0   1

             97        0   1   1   0   1   0
         11.1128       1   0   1   1   0   0

             98        0   1   1   0   1   0
         11.2605       1   0   1   0   1   0

             99        0   1   1   0   1   0
         10.4986       1   0   1   0   0   1

            100        0   1   1   0   1   0
         11.5014       0   1   1   1   0   0

            101        0   1   1   0   1   0
         11.0350       0   1   1   0   1   0

            102        0   1   1   0   1   0
         11.5014       0   1   1   0   0   1

            103        0   1   1   0   0   1
          5.0257       1   1   1   0   0   0

            104        0   1   1   0   0   1
         11.1128       1   1   0   1   0   0

            105        0   1   1   0   0   1
         11.3559       1   1   0   0   1   0

            106        0   1   1   0   0   1
         12.2458       1   1   0   0   0   1

            107        0   1   1   0   0   1
         11.3559       1   0   1   1   0   0

            108        0   1   1   0   0   1
         10.9848       1   0   1   0   1   0

            109        0   1   1   0   0   1
         11.2605       1   0   1   0   0   1

            110        0   1   1   0   0   1
         12.4867       0   1   1   1   0   0

            111        0   1   1   0   0   1
         11.5014       0   1   1   0   1   0

            112        0   1   1   0   0   1
         13.0055       0   1   1   0   0   1

            113        0   1   0   1   1   0
         10.8058       1   1   1   0   0   0

            114        0   1   0   1   0   1
         11.4200       1   1   1   0   0   0

            115        0   1   0   0   1   1
         11.4200       1   1   1   0   0   0

            116        0   0   1   1   1   0
         11.4200       1   1   1   0   0   0

            117        0   0   1   1   0   1
         11.4200       1   1   1   0   0   0

            118        0   0   1   0   1   1
         10.8058       1   1   1   0   0   0

  STATE       ENERGY (EV)        Q.N.  SPIN   SYMMETRY              POLARIZATION
         ABSOLUTE     RELATIVE                                X           Y           Z

    1    -0.087561    0.000000     1   SINGLET     A1g 
    2+    4.358098    4.445659     1+  TRIPLET     A2u 
    3     4.386498    4.474060     1   TRIPLET     Eu  
    5     4.420366    4.507928     1   SINGLET     Eu  
    7     4.497551    4.585112     1   SINGLET     A2u 
    8     4.738655    4.826216     1   TRIPLET     T1u 
   11     4.757588    4.845150     1   TRIPLET     T2u 
   14     4.826670    4.914232     1   SINGLET     T2u 
   17     5.780036    5.867598     1   SINGLET     T1u 
   20    10.162562   10.250123     1   QUINTET     A1g 
   21    10.190962   10.278523     1   QUINTET     Eg  
   23    10.441610   10.529171     1   TRIPLET     A2g 
   24    10.459589   10.547150     1   TRIPLET     Eg  
   26    10.543119   10.630680     1   QUINTET     T2g 
   29    10.562052   10.649614     1   QUINTET     T1g 
   32    10.589540   10.677101     1   SINGLET     Eg  
   34    10.651720   10.739281     2   SINGLET     A1g 
   35    10.799852   10.887413     2   TRIPLET     Eg  
   37    10.818793   10.906354     1   TRIPLET     T1g 
   40    10.822051   10.909612     1   TRIPLET     A1g 
   41    10.845373   10.932935     1   TRIPLET     T2g       0.0313      0.0313      0.0313
   44    10.938464   11.026026     3   SINGLET     A1g 
   45    10.938677   11.026239     2   TRIPLET     T1g 
   48    10.950548   11.038109     2   TRIPLET     T2g       0.0102      0.0102      0.0102
   51    10.986490   11.074052     2   SINGLET     Eg  
   53    11.006134   11.093696     1   SINGLET     T1g 
   56    11.020306   11.107867     3   TRIPLET     Eg  
   58    11.044486   11.132047     2   TRIPLET     A2g 
   59    11.068316   11.155878     3   TRIPLET     T1g 
   62    11.155005   11.242566     2   SINGLET     T1g 
   65    11.203754   11.291315     4   TRIPLET     T1g 
   68    11.254766   11.342328     3   SINGLET     Eg  
   70    11.343876   11.431438     1   SINGLET     T2g 
   73    11.348190   11.435751     4   SINGLET     A1g 
   74    11.372438   11.459999     3   TRIPLET     T2g       0.0274      0.0274      0.0274
   77    11.418419   11.505981     2   SINGLET     T2g 
   80    11.421666   11.509227     4   TRIPLET     T2g       0.6482      0.6482      0.6482
   83    11.608569   11.696130     3   SINGLET     T1g 
   86    11.690191   11.777753     5   TRIPLET     T1g 
   89    11.761749   11.849310     3   SINGLET     T2g 
   92    11.861121   11.948682     4   SINGLET     T1g 
   95    11.951913   12.039475     4   SINGLET     T2g 
   98    12.022216   12.109777     5   TRIPLET     T2g       0.6137      0.6137      0.6137
  101    12.279497   12.367059     6   TRIPLET     T1g 
  104    12.534992   12.622554     5   SINGLET     T2g 
  107    12.678090   12.765651     7   TRIPLET     T1g 
  110    12.757462   12.845023     1   SINGLET     A2g 
  111    13.018749   13.106310     4   SINGLET     Eg  
  113    13.031027   13.118588     6   SINGLET     T2g 
  116    13.287975   13.375537     5   SINGLET     Eg  
  118    13.578031   13.665593     5   SINGLET     A1g 
           The "+" symbol indicates the root used.
 *******************************************************************************
 ** Cite this program as: MOPAC2016, Version: 21.298M, James J. P. Stewart,   **
 **                           web-site: HTTP://OpenMOPAC.net.                 **
 *******************************************************************************
 **                                                                           **
 **                                MOPAC2016                                  **
 **                                                                           **
 *******************************************************************************

                              PM7 CALCULATION RESULTS

 *******************************************************************************
 *  CALCULATION DONE:                                Fri Oct 29 13:45:47 2021  *
 *  CISD       - C.I. USES 1 AND 2 ELECTRON EXCITATIONS
 *  C.I.=6     - 6 M.O.S TO BE USED IN C.I.
 *  ROOT       - IN A C.I. CALCULATION, ROOT "4" TO BE OPTIMIZED.
 *  1SCF       - DO 1 SCF AND THEN STOP 
 *  T=         - A TIME OF 172800.0 SECONDS REQUESTED
 *  DUMP=N     - RESTART FILE WRITTEN EVERY 7200.0 SECONDS REQUESTED
 *  MECI       - M.E.C.I. WORKING TO BE PRINTED
 *******************************************************************************
1SCF C.I.=6 CISD MECI ROOT=4
 comment1
 comment2
   ATOM   CHEMICAL          X               Y               Z
  NUMBER   SYMBOL      (ANGSTROMS)     (ANGSTROMS)     (ANGSTROMS)
 
     1      Cr          0.00000000  *   0.00000000  *   0.00000000  *
     2       C          1.91000000  *   0.00000000  *   0.00000000  *
     3       C         -1.91000000  *   0.00000000  *   0.00000000  *
     4       C          0.00000000  *   1.91000000  *   0.00000000  *
     5       C          0.00000000  *  -1.91000000  *   0.00000000  *
     6       C          0.00000000  *   0.00000000  *   1.91000000  *
     7       C          0.00000000  *   0.00000000  *  -1.91000000  *
     8       O          3.05000000  *   0.00000000  *   0.00000000  *
     9       O         -3.05000000  *   0.00000000  *   0.00000000  *
    10       O          0.00000000  *   3.05000000  *   0.00000000  *
    11       O          0.00000000  *  -3.05000000  *   0.00000000  *
    12       O          0.00000000  *   0.00000000  *   3.05000000  *
    13       O          0.00000000  *   0.00000000  *  -3.05000000  *
 


          CARTESIAN COORDINATES 

    NO.       ATOM           X           Y           Z

     1        Cr          0.0000      0.0000      0.0000
     2         C          1.9100      0.0000      0.0000
     3         C         -1.9100      0.0000      0.0000
     4         C          0.0000      1.9100      0.0000
     5         C          0.0000     -1.9100      0.0000
     6         C          0.0000      0.0000      1.9100
     7         C          0.0000      0.0000     -1.9100
     8         O          3.0500      0.0000      0.0000
     9         O         -3.0500      0.0000      0.0000
    10         O          0.0000      3.0500      0.0000
    11         O          0.0000     -3.0500      0.0000
    12         O          0.0000      0.0000      3.0500
    13         O          0.0000      0.0000     -3.0500

 General Reference for PM7:
 "Optimization of Parameters for Semiempirical Methods VI: More Modifications to the 
 NDDO Approximations and Re-optimization of Parameters", J. J. P. Stewart, J. Mol. Mod., 1:32, 19 (2013)
 https://link.springer.com/article/10.1007/s00894-012-1667-x

           Empirical Formula: C6 O6 Cr  =    13 atoms



      MOLECULAR POINT GROUP   :   Oh  


      RHF CALCULATION, NO. OF DOUBLY OCCUPIED LEVELS = 33



 ALL CONVERGERS ARE NOW FORCED ON
 SHIFT=10, PULAY ON, CAMP-KING ON
 AND ITERATION COUNTER RESET



 -------------------------------------------------------------------------------
 1SCF C.I.=6 CISD MECI ROOT=4
 comment1
 comment2


     1SCF WAS SPECIFIED, SO BFGS WAS NOT USED                 
     SCF FIELD WAS ACHIEVED                                   


                              PM7 CALCULATION
                                                       MOPAC2016 (Version: 21.298M)
                                                       Fri Oct 29 13:45:48 2021




          FINAL HEAT OF FORMATION =       -101.79895 KCAL/MOL =    -425.92679 KJ/MOL


          COSMO AREA              =        198.98 SQUARE ANGSTROMS
          COSMO VOLUME            =        200.21 CUBIC ANGSTROMS

          IONIZATION POTENTIAL    =          9.960464 EV          STATE:   1 SINGLET Eu
          HOMO LUMO ENERGIES (EV) =         -9.960 -0.191
          NO. OF FILLED LEVELS    =         33
          MOLECULAR WEIGHT        =        220.0584         POINT GROUP:  Oh  

          MOLECULAR DIMENSIONS (Angstroms)

            Atom       Atom       Distance
            O     9    O     8     6.10000
            O    11    O    10     6.10000
            O    13    O    12     6.10000


          SCF CALCULATIONS        =          1
 
          WALL-CLOCK TIME         =          3.844 SECONDS
          COMPUTATION TIME        =         13.795 SECONDS




   ATOM   CHEMICAL          X               Y               Z
  NUMBER   SYMBOL      (ANGSTROMS)     (ANGSTROMS)     (ANGSTROMS)
 
     1      Cr          0.00000000  *   0.00000000  *   0.00000000  *
     2       C          1.91000000  *   0.00000000  *   0.00000000  *
     3       C         -1.91000000  *   0.00000000  *   0.00000000  *
     4       C          0.00000000  *   1.91000000  *   0.00000000  *
     5       C          0.00000000  *  -1.91000000  *   0.00000000  *
     6       C          0.00000000  *   0.00000000  *   1.91000000  *
     7       C          0.00000000  *   0.00000000  *  -1.91000000  *
     8       O          3.05000000  *   0.00000000  *   0.00000000  *
     9       O         -3.05000000  *   0.00000000  *   0.00000000  *
    10       O          0.00000000  *   3.05000000  *   0.00000000  *
    11       O          0.00000000  *  -3.05000000  *   0.00000000  *
    12       O          0.00000000  *   0.00000000  *   3.05000000  *
    13       O          0.00000000  *   0.00000000  *  -3.05000000  *

                             CARTESIAN COORDINATES

   1   Cr        0.000000000     0.000000000     0.000000000
   2    C        1.910000000     0.000000000     0.000000000
   3    C       -1.910000000     0.000000000     0.000000000
   4    C        0.000000000     1.910000000     0.000000000
   5    C        0.000000000    -1.910000000     0.000000000
   6    C        0.000000000     0.000000000     1.910000000
   7    C        0.000000000     0.000000000    -1.910000000
   8    O        3.050000000     0.000000000     0.000000000
   9    O       -3.050000000     0.000000000     0.000000000
  10    O        0.000000000     3.050000000     0.000000000
  11    O        0.000000000    -3.050000000     0.000000000
  12    O        0.000000000     0.000000000     3.050000000
  13    O        0.000000000     0.000000000    -3.050000000


           Empirical Formula: C6 O6 Cr  =    13 atoms



      MOLECULAR POINT GROUP   :   Oh  


                  EIGENVALUES  
 -34.33069 -34.33069 -33.55180 -33.55180 -33.55180 -33.43774 -23.17591 -22.33613
 -22.33613 -20.39583 -20.39583 -20.39583 -17.93917 -17.93917 -17.93917 -16.26866
 -15.94356 -15.94356 -15.94356 -15.73024 -15.73024 -15.73024 -15.57391 -15.57391
 -15.57391 -14.54492 -14.54492 -12.65217 -12.65217 -12.65217  -9.96046  -9.96046
  -9.96046  -0.19115  -0.19115  -0.19115   0.03777   0.03777   0.03777   0.61471
   0.61471   0.61471   2.48259   2.48259   2.48259   2.52524   4.04108   4.04108
   4.55203   4.55203   4.55203   6.07408   6.07408   7.70783  76.28449  76.28449
  76.28449


              NET ATOMIC CHARGES AND DIPOLE CONTRIBUTIONS

[...]
          NO. OF FILLED LEVELS    =         33
          MOLECULAR WEIGHT        =        220.0584         POINT GROUP:  Oh  

          MOLECULAR DIMENSIONS (Angstroms)

            Atom       Atom       Distance
            O     9    O     8     6.10000
            O    11    O    10     6.10000
            O    13    O    12     6.10000


          SCF CALCULATIONS        =          1
 
          WALL-CLOCK TIME         =          6.953 SECONDS
          COMPUTATION TIME        =         24.784 SECONDS




   ATOM   CHEMICAL          X               Y               Z
  NUMBER   SYMBOL      (ANGSTROMS)     (ANGSTROMS)     (ANGSTROMS)
 
     1      Cr          0.00000000  *   0.00000000  *   0.00000000  *
     2       C          1.91000000  *   0.00000000  *   0.00000000  *
     3       C         -1.91000000  *   0.00000000  *   0.00000000  *
     4       C          0.00000000  *   1.91000000  *   0.00000000  *
     5       C          0.00000000  *  -1.91000000  *   0.00000000  *
     6       C          0.00000000  *   0.00000000  *   1.91000000  *
     7       C          0.00000000  *   0.00000000  *  -1.91000000  *
     8       O          3.05000000  *   0.00000000  *   0.00000000  *
     9       O         -3.05000000  *   0.00000000  *   0.00000000  *
    10       O          0.00000000  *   3.05000000  *   0.00000000  *
    11       O          0.00000000  *  -3.05000000  *   0.00000000  *
    12       O          0.00000000  *   0.00000000  *   3.05000000  *
    13       O          0.00000000  *   0.00000000  *  -3.05000000  *

                             CARTESIAN COORDINATES

   1   Cr        0.000000000     0.000000000     0.000000000
   2    C        1.910000000     0.000000000     0.000000000
   3    C       -1.910000000     0.000000000     0.000000000
   4    C        0.000000000     1.910000000     0.000000000
   5    C        0.000000000    -1.910000000     0.000000000
   6    C        0.000000000     0.000000000     1.910000000
   7    C        0.000000000     0.000000000    -1.910000000
   8    O        3.050000000     0.000000000     0.000000000
   9    O       -3.050000000     0.000000000     0.000000000
  10    O        0.000000000     3.050000000     0.000000000
  11    O        0.000000000    -3.050000000     0.000000000
  12    O        0.000000000     0.000000000     3.050000000
  13    O        0.000000000     0.000000000    -3.050000000


           Empirical Formula: C6 O6 Cr  =    13 atoms



      MOLECULAR POINT GROUP   :   Oh  


                  EIGENVALUES  
 -34.33069 -34.33069 -33.55180 -33.55180 -33.55180 -33.43774 -23.17591 -22.33613
 -22.33613 -20.39583 -20.39583 -20.39583 -17.93917 -17.93917 -17.93917 -16.26866
 -15.94356 -15.94356 -15.94356 -15.73024 -15.73024 -15.73024 -15.57391 -15.57391
 -15.57391 -14.54492 -14.54492 -12.65217 -12.65217 -12.65217  -9.96046  -9.96046
  -9.96046  -0.19115  -0.19115  -0.19115   0.03777   0.03777   0.03777   0.61471
   0.61471   0.61471   2.48259   2.48259   2.48259   2.52524   4.04108   4.04108
   4.55203   4.55203   4.55203   6.07408   6.07408   7.70783  76.28449  76.28449
  76.28449


              NET ATOMIC CHARGES AND DIPOLE CONTRIBUTIONS

  ATOM NO.   TYPE          CHARGE      No. of ELECS.   s-Pop       p-Pop       d-Pop       
    1         Cr           0.805454        5.1945     0.38534     0.03352     4.77569
    2          C           0.241316        3.7587     1.55336     2.20533
    3          C           0.241316        3.7587     1.55336     2.20533
    4          C           0.241316        3.7587     1.55336     2.20533
    5          C           0.241316        3.7587     1.55336     2.20533
    6          C           0.241316        3.7587     1.55336     2.20533
    7          C           0.241316        3.7587     1.55336     2.20533
    8          O          -0.375558        6.3756     1.83938     4.53617
    9          O          -0.375558        6.3756     1.83938     4.53617
   10          O          -0.375558        6.3756     1.83938     4.53617
   11          O          -0.375558        6.3756     1.83938     4.53617
   12          O          -0.375558        6.3756     1.83938     4.53617
   13          O          -0.375558        6.3756     1.83938     4.53617
 DIPOLE           X         Y         Z       TOTAL
 POINT-CHG.    -0.000    -0.000    -0.000     0.000
 HYBRID         0.000     0.000     0.000     0.000
 SUM           -0.000    -0.000    -0.000     0.000


          ATOMIC ORBITAL ELECTRON POPULATIONS

     Atom    s        px        py        pz      x^2-y^2     xz        z^2       yz        xy
    1 Cr   0.38534   0.01117   0.01117   0.01117   0.57628   1.20771   0.57628   1.20771   1.20771
    2  C   1.55336   0.93129   0.63702   0.63702
    3  C   1.55336   0.93129   0.63702   0.63702
    4  C   1.55336   0.63702   0.93129   0.63702
    5  C   1.55336   0.63702   0.93129   0.63702
    6  C   1.55336   0.63702   0.63702   0.93129
    7  C   1.55336   0.63702   0.63702   0.93129
    8  O   1.83938   1.40234   1.56692   1.56692
    9  O   1.83938   1.40234   1.56692   1.56692
   10  O   1.83938   1.56692   1.40234   1.56692
   11  O   1.83938   1.56692   1.40234   1.56692
   12  O   1.83938   1.56692   1.56692   1.40234
   13  O   1.83938   1.56692   1.56692   1.40234


          MULTI-ELECTRON CONFIGURATION INTERACTION CALCULATION


          COMPONENT OF SPIN  =  0.0


           NO OF CONFIGURATIONS CONSIDERED = 118

 CONFIGURATIONS CONSIDERED IN C.I.      
 M.O. NUMBER :        31  32  33  34  35  36
          ENERGY

              1        1   1   1   0   0   0
          0.0000       1   1   1   0   0   0

              2        1   1   1   0   0   0
          4.4116       1   1   0   1   0   0

              3        1   1   1   0   0   0
          5.0257       1   1   0   0   1   0

              4        1   1   1   0   0   0
          5.0257       1   1   0   0   0   1

              5        1   1   1   0   0   0
          5.0257       1   0   1   1   0   0

              6        1   1   1   0   0   0
          5.0257       1   0   1   0   1   0

              7        1   1   1   0   0   0
          4.4116       1   0   1   0   0   1

              8        1   1   1   0   0   0
         11.4200       1   0   0   1   1   0

              9        1   1   1   0   0   0
         10.8058       1   0   0   1   0   1

             10        1   1   1   0   0   0
         11.4200       1   0   0   0   1   1

             11        1   1   1   0   0   0
          5.0257       0   1   1   1   0   0

             12        1   1   1   0   0   0
          4.4116       0   1   1   0   1   0

             13        1   1   1   0   0   0
          5.0257       0   1   1   0   0   1

             14        1   1   1   0   0   0
         10.8058       0   1   0   1   1   0

             15        1   1   1   0   0   0
         11.4200       0   1   0   1   0   1

             16        1   1   1   0   0   0
         11.4200       0   1   0   0   1   1

             17        1   1   1   0   0   0
         11.4200       0   0   1   1   1   0

             18        1   1   1   0   0   0
         11.4200       0   0   1   1   0   1

             19        1   1   1   0   0   0
         10.8058       0   0   1   0   1   1

             20        1   1   0   1   0   0
          4.4116       1   1   1   0   0   0

             21        1   1   0   1   0   0
         11.0350       1   1   0   1   0   0

             22        1   1   0   1   0   0
         11.5014       1   1   0   0   1   0

             23        1   1   0   1   0   0
         11.5014       1   1   0   0   0   1

             24        1   1   0   1   0   0
         11.2605       1   0   1   1   0   0

             25        1   1   0   1   0   0
         11.1128       1   0   1   0   1   0

             26        1   1   0   1   0   0
         10.4986       1   0   1   0   0   1

             27        1   1   0   1   0   0
         11.2605       0   1   1   1   0   0

             28        1   1   0   1   0   0
         10.4986       0   1   1   0   1   0

             29        1   1   0   1   0   0
         11.1128       0   1   1   0   0   1

             30        1   1   0   0   1   0
          5.0257       1   1   1   0   0   0

             31        1   1   0   0   1   0
         11.5014       1   1   0   1   0   0

             32        1   1   0   0   1   0
         13.0055       1   1   0   0   1   0

             33        1   1   0   0   1   0
         12.4867       1   1   0   0   0   1

             34        1   1   0   0   1   0
         11.3559       1   0   1   1   0   0

             35        1   1   0   0   1   0
         12.2458       1   0   1   0   1   0

             36        1   1   0   0   1   0
         11.1128       1   0   1   0   0   1

             37        1   1   0   0   1   0
         10.9848       0   1   1   1   0   0

             38        1   1   0   0   1   0
         11.2605       0   1   1   0   1   0

             39        1   1   0   0   1   0
         11.3559       0   1   1   0   0   1

             40        1   1   0   0   0   1
          5.0257       1   1   1   0   0   0

             41        1   1   0   0   0   1
         11.5014       1   1   0   1   0   0

             42        1   1   0   0   0   1
         12.4867       1   1   0   0   1   0

             43        1   1   0   0   0   1
         13.0055       1   1   0   0   0   1

             44        1   1   0   0   0   1
         10.9848       1   0   1   1   0   0

             45        1   1   0   0   0   1
         11.3559       1   0   1   0   1   0

             46        1   1   0   0   0   1
         11.2605       1   0   1   0   0   1

             47        1   1   0   0   0   1
         11.3559       0   1   1   1   0   0

             48        1   1   0   0   0   1
         11.1128       0   1   1   0   1   0

             49        1   1   0   0   0   1
         12.2458       0   1   1   0   0   1

             50        1   0   1   1   0   0
          5.0257       1   1   1   0   0   0

             51        1   0   1   1   0   0
         11.2605       1   1   0   1   0   0

             52        1   0   1   1   0   0
         11.3559       1   1   0   0   1   0

             53        1   0   1   1   0   0
         10.9848       1   1   0   0   0   1

             54        1   0   1   1   0   0
         13.0055       1   0   1   1   0   0

             55        1   0   1   1   0   0
         12.4867       1   0   1   0   1   0

             56        1   0   1   1   0   0
         11.5014       1   0   1   0   0   1

             57        1   0   1   1   0   0
         12.2458       0   1   1   1   0   0

             58        1   0   1   1   0   0
         11.1128       0   1   1   0   1   0

             59        1   0   1   1   0   0
         11.3559       0   1   1   0   0   1

             60        1   0   1   0   1   0
          5.0257       1   1   1   0   0   0

             61        1   0   1   0   1   0
         11.1128       1   1   0   1   0   0

             62        1   0   1   0   1   0
         12.2458       1   1   0   0   1   0

             63        1   0   1   0   1   0
         11.3559       1   1   0   0   0   1

             64        1   0   1   0   1   0
         12.4867       1   0   1   1   0   0

             65        1   0   1   0   1   0
         13.0055       1   0   1   0   1   0

             66        1   0   1   0   1   0
         11.5014       1   0   1   0   0   1

             67        1   0   1   0   1   0
         11.3559       0   1   1   1   0   0

             68        1   0   1   0   1   0
         11.2605       0   1   1   0   1   0

             69        1   0   1   0   1   0
         10.9848       0   1   1   0   0   1

             70        1   0   1   0   0   1
          4.4116       1   1   1   0   0   0

             71        1   0   1   0   0   1
         10.4986       1   1   0   1   0   0

             72        1   0   1   0   0   1
         11.1128       1   1   0   0   1   0

             73        1   0   1   0   0   1
         11.2605       1   1   0   0   0   1

             74        1   0   1   0   0   1
         11.5014       1   0   1   1   0   0

             75        1   0   1   0   0   1
         11.5014       1   0   1   0   1   0

             76        1   0   1   0   0   1
         11.0350       1   0   1   0   0   1

             77        1   0   1   0   0   1
         11.1128       0   1   1   1   0   0

             78        1   0   1   0   0   1
         10.4986       0   1   1   0   1   0

             79        1   0   1   0   0   1
         11.2605       0   1   1   0   0   1

             80        1   0   0   1   1   0
         11.4200       1   1   1   0   0   0

             81        1   0   0   1   0   1
         10.8058       1   1   1   0   0   0

             82        1   0   0   0   1   1
         11.4200       1   1   1   0   0   0

             83        0   1   1   1   0   0
          5.0257       1   1   1   0   0   0

             84        0   1   1   1   0   0
         11.2605       1   1   0   1   0   0

             85        0   1   1   1   0   0
         10.9848       1   1   0   0   1   0

             86        0   1   1   1   0   0
         11.3559       1   1   0   0   0   1

             87        0   1   1   1   0   0
         12.2458       1   0   1   1   0   0

             88        0   1   1   1   0   0
         11.3559       1   0   1   0   1   0

             89        0   1   1   1   0   0
         11.1128       1   0   1   0   0   1

             90        0   1   1   1   0   0
         13.0055       0   1   1   1   0   0

             91        0   1   1   1   0   0
         11.5014       0   1   1   0   1   0

             92        0   1   1   1   0   0
         12.4867       0   1   1   0   0   1

             93        0   1   1   0   1   0
          4.4116       1   1   1   0   0   0

             94        0   1   1   0   1   0
         10.4986       1   1   0   1   0   0

             95        0   1   1   0   1   0
         11.2605       1   1   0   0   1   0

             96        0   1   1   0   1   0
         11.1128       1   1   0   0   0   1

             97        0   1   1   0   1   0
         11.1128       1   0   1   1   0   0

             98        0   1   1   0   1   0
         11.2605       1   0   1   0   1   0

             99        0   1   1   0   1   0
         10.4986       1   0   1   0   0   1

            100        0   1   1   0   1   0
         11.5014       0   1   1   1   0   0

            101        0   1   1   0   1   0
         11.0350       0   1   1   0   1   0

            102        0   1   1   0   1   0
         11.5014       0   1   1   0   0   1

            103        0   1   1   0   0   1
          5.0257       1   1   1   0   0   0

            104        0   1   1   0   0   1
         11.1128       1   1   0   1   0   0

            105        0   1   1   0   0   1
         11.3559       1   1   0   0   1   0

            106        0   1   1   0   0   1
         12.2458       1   1   0   0   0   1

            107        0   1   1   0   0   1
         11.3559       1   0   1   1   0   0

            108        0   1   1   0   0   1
         10.9848       1   0   1   0   1   0

            109        0   1   1   0   0   1
         11.2605       1   0   1   0   0   1

            110        0   1   1   0   0   1
         12.4867       0   1   1   1   0   0

            111        0   1   1   0   0   1
         11.5014       0   1   1   0   1   0

            112        0   1   1   0   0   1
         13.0055       0   1   1   0   0   1

            113        0   1   0   1   1   0
         10.8058       1   1   1   0   0   0

            114        0   1   0   1   0   1
         11.4200       1   1   1   0   0   0

            115        0   1   0   0   1   1
         11.4200       1   1   1   0   0   0

            116        0   0   1   1   1   0
         11.4200       1   1   1   0   0   0

            117        0   0   1   1   0   1
         11.4200       1   1   1   0   0   0

            118        0   0   1   0   1   1
         10.8058       1   1   1   0   0   0

  STATE       ENERGY (EV)        Q.N.  SPIN   SYMMETRY              POLARIZATION
         ABSOLUTE     RELATIVE                                X           Y           Z

    1    -0.087561    0.000000     1   SINGLET     A1g 
    2     4.358098    4.445659     1   TRIPLET     A2u 
    3+    4.386498    4.474060     1+  TRIPLET     Eu  
    5     4.420366    4.507928     1   SINGLET     Eu  
    7     4.497551    4.585112     1   SINGLET     A2u 
    8     4.738655    4.826216     1   TRIPLET     T1u 
   11     4.757588    4.845150     1   TRIPLET     T2u 
   14     4.826670    4.914232     1   SINGLET     T2u 
   17     5.780036    5.867598     1   SINGLET     T1u 
   20    10.162562   10.250123     1   QUINTET     A1g 
   21    10.190962   10.278523     1   QUINTET     Eg  
   23    10.441610   10.529171     1   TRIPLET     A2g 
   24    10.459589   10.547150     1   TRIPLET     Eg  
   26    10.543119   10.630680     1   QUINTET     T2g 
   29    10.562052   10.649614     1   QUINTET     T1g 
   32    10.589540   10.677101     1   SINGLET     Eg  
   34    10.651720   10.739281     2   SINGLET     A1g 
   35    10.799852   10.887413     2   TRIPLET     Eg  
   37    10.818793   10.906354     1   TRIPLET     T1g       0.0001      0.0001      0.0001
   40    10.822051   10.909612     1   TRIPLET     A1g 
   41    10.845373   10.932935     1   TRIPLET     T2g       0.0149      0.0149      0.0149
   44    10.938464   11.026026     3   SINGLET     A1g 
   45    10.938677   11.026239     2   TRIPLET     T1g       0.0376      0.0376      0.0376
   48    10.950548   11.038109     2   TRIPLET     T2g       0.0493      0.0493      0.0493
   51    10.986490   11.074052     2   SINGLET     Eg  
   53    11.006134   11.093696     1   SINGLET     T1g 
   56    11.020306   11.107867     3   TRIPLET     Eg  
   58    11.044486   11.132047     2   TRIPLET     A2g 
   59    11.068316   11.155878     3   TRIPLET     T1g       0.1387      0.1387      0.1387
   62    11.155005   11.242566     2   SINGLET     T1g 
   65    11.203754   11.291315     4   TRIPLET     T1g       0.0246      0.0246      0.0246
   68    11.254766   11.342328     3   SINGLET     Eg  
   70    11.343876   11.431438     1   SINGLET     T2g 
   73    11.348190   11.435751     4   SINGLET     A1g 
   74    11.372438   11.459999     3   TRIPLET     T2g       0.0012      0.0012      0.0012
   77    11.418419   11.505981     2   SINGLET     T2g 
   80    11.421666   11.509227     4   TRIPLET     T2g       0.2886      0.2886      0.2886
   83    11.608569   11.696130     3   SINGLET     T1g 
   86    11.690191   11.777753     5   TRIPLET     T1g       0.7529      0.7529      0.7529
   89    11.761749   11.849310     3   SINGLET     T2g 
   92    11.861121   11.948682     4   SINGLET     T1g 
   95    11.951913   12.039475     4   SINGLET     T2g 
   98    12.022216   12.109777     5   TRIPLET     T2g       1.3095      1.3095      1.3095
  101    12.279497   12.367059     6   TRIPLET     T1g       0.0013      0.0013      0.0013
  104    12.534992   12.622554     5   SINGLET     T2g 
  107    12.678090   12.765651     7   TRIPLET     T1g       0.0428      0.0428      0.0428
  110    12.757462   12.845023     1   SINGLET     A2g 
  111    13.018749   13.106310     4   SINGLET     Eg  
  113    13.031027   13.118588     6   SINGLET     T2g 
  116    13.287975   13.375537     5   SINGLET     Eg  
  118    13.578031   13.665593     5   SINGLET     A1g 
           The "+" symbol indicates the root used.

 **********************
 *                    *
 * JOB ENDED NORMALLY *
 *                    *
 **********************



 TOTAL JOB TIME:            13.40 SECONDS

 == MOPAC DONE ==
