 *******************************************************************************
 ** Cite this program as: MOPAC2016, Version: 21.298M, James J. P. Stewart,   **
 **                           web-site: HTTP://OpenMOPAC.net.                 **
 *******************************************************************************
 **                                                                           **
 **                                MOPAC2016                                  **
 **                                                                           **
 *******************************************************************************

                              PM7 CALCULATION RESULTS

 *******************************************************************************
 *  CALCULATION DONE:                                Fri Oct 29 13:45:53 2021  *
 *  RHF        - RESTRICTED HARTREE-FOCK CALCULATION
 *  C.I.=2     - 2 M.O.S TO BE USED IN C.I.
 *  T=         - A TIME OF 172800.0 SECONDS REQUESTED
 *  DUMP=N     - RESTART FILE WRITTEN EVERY 7200.0 SECONDS REQUESTED
 *  MECI       - M.E.C.I. WORKING TO BE PRINTED
 *******************************************************************************
RHF C.I.=2 MECI
 comment1
 comment2
   ATOM   CHEMICAL          X               Y               Z
  NUMBER   SYMBOL      (ANGSTROMS)     (ANGSTROMS)     (ANGSTROMS)
 
     1       O         -0.50000000  *   0.00000000  *   0.00000000  *
     2       O          0.50000000  *   0.00000000  *   0.00000000  *
 


          CARTESIAN COORDINATES 

    NO.       ATOM           X           Y           Z

     1         O         -0.5000      0.0000      0.0000
     2         O          0.5000      0.0000      0.0000

 General Reference for PM7:
 "Optimization of Parameters for Semiempirical Methods VI: More Modifications to the 
 NDDO Approximations and Re-optimization of Parameters", J. J. P. Stewart, J. Mol. Mod., 1:32, 19 (2013)
 https://link.springer.com/article/10.1007/s00894-012-1667-x

           Empirical Formula: O2  =     2 atoms



      MOLECULAR POINT GROUP   :   D*h 


      RHF CALCULATION, NO. OF DOUBLY OCCUPIED LEVELS = 6


          Geometry optimization using EF

          DIAGONAL MATRIX USED AS START HESSIAN

 CYCLE:     1 TIME:   0.004 TIME LEFT:  2.00D  GRAD.:   471.259 HEAT:  10.91828
 CYCLE:     2 TIME:   0.000 TIME LEFT:  2.00D  GRAD.:   258.057 HEAT:  7.005458
 CYCLE:     3 TIME:   0.000 TIME LEFT:  2.00D  GRAD.:   109.437 HEAT: -6.463654
 CYCLE:     4 TIME:   0.004 TIME LEFT:  2.00D  GRAD.:    60.744 HEAT: -8.006031
 CYCLE:     5 TIME:   0.000 TIME LEFT:  2.00D  GRAD.:     7.355 HEAT: -8.488418
 CYCLE:     6 TIME:   0.000 TIME LEFT:  2.00D  GRAD.:     0.428 HEAT: -8.496260

     GRADIENT =  0.42835 IS LESS THAN CUTOFF =  1.00000



 -------------------------------------------------------------------------------
 RHF C.I.=2 MECI
 comment1
 comment2


     GEOMETRY OPTIMISED USING EIGENVECTOR FOLLOWING (EF).     
     SCF FIELD WAS ACHIEVED                                   


                              PM7 CALCULATION
                                                       MOPAC2016 (Version: 21.298M)
                                                       Fri Oct 29 13:45:53 2021




          FINAL HEAT OF FORMATION =         -8.49626 KCAL/MOL =     -35.54835 KJ/MOL


          COSMO AREA              =         49.05 SQUARE ANGSTROMS
          COSMO VOLUME            =         31.36 CUBIC ANGSTROMS

          GRADIENT NORM           =          0.42835          =       0.30289 PER ATOM
          IONIZATION POTENTIAL    =          9.158148 EV          STATE:   1 TRIPLET Sig-
          HOMO LUMO ENERGIES (EV) =         -9.158 -0.903
          NO. OF FILLED LEVELS    =          6
          MOLECULAR WEIGHT        =         31.9988         POINT GROUP:  D*h 

          MOLECULAR DIMENSIONS (Angstroms)

            Atom       Atom       Distance
            O     2    O     1     1.13253
            O     2    O     1     0.00000
            O     1    O     2     0.00000


          SCF CALCULATIONS        =          7
 
          WALL-CLOCK TIME         =          0.016 SECONDS
          COMPUTATION TIME        =          0.014 SECONDS




   ATOM   CHEMICAL          X               Y               Z
  NUMBER   SYMBOL      (ANGSTROMS)     (ANGSTROMS)     (ANGSTROMS)
 
     1       O         -0.56626633  *  -0.00000000  *  -0.00000000  *
     2       O          0.56626633  *  -0.00000000  *  -0.00000000  *

                             CARTESIAN COORDINATES

   1    O       -0.566266331    -0.000000000    -0.000000000
   2    O        0.566266332    -0.000000000    -0.000000000


           Empirical Formula: O2  =     2 atoms



      MOLECULAR POINT GROUP   :   D*h 


                  EIGENVALUES  
 -32.82786 -28.42124 -17.15324 -16.73983 -15.98417  -9.15815  -0.90256   3.24162


              NET ATOMIC CHARGES AND DIPOLE CONTRIBUTIONS

  ATOM NO.   TYPE          CHARGE      No. of ELECS.   s-Pop       p-Pop       
    1          O          -0.000000        6.0000     1.95052     4.04948
    2          O           0.000000        6.0000     1.95052     4.04948
 DIPOLE           X         Y         Z       TOTAL
 POINT-CHG.     0.000     0.000    -0.000     0.000
 HYBRID        -0.000     0.000     0.000     0.000
 SUM            0.000     0.000     0.000     0.000


          ATOMIC ORBITAL ELECTRON POPULATIONS

     Atom    s        px        py        pz   
    1  O   1.95052   1.04948   1.50000   1.50000
    2  O   1.95052   1.04948   1.50000   1.50000


          MULTI-ELECTRON CONFIGURATION INTERACTION CALCULATION


          COMPONENT OF SPIN  =  0.0


           NO OF CONFIGURATIONS CONSIDERED = 4

 CONFIGURATIONS CONSIDERED IN C.I.      
 M.O. NUMBER :         6   7
          ENERGY

              1        1   0
          0.0000       1   0

              2        1   0
         -0.9879       0   1

              3        0   1
         -0.9879       1   0

              4        0   1
          0.0000       0   1

  STATE       ENERGY (EV)        Q.N.  SPIN   SYMMETRY              POLARIZATION
         ABSOLUTE     RELATIVE                                X           Y           Z

    1+   -1.481849    0.000000     1+  TRIPLET     Sig-
    2    -0.493950    0.987900     1   SINGLET     Delg
    4     0.493950    1.975799     1   SINGLET     Sig 
           The "+" symbol indicates the root used.
 *******************************************************************************
 ** Cite this program as: MOPAC2016, Version: 21.298M, James J. P. Stewart,   **
 **                           web-site: HTTP://OpenMOPAC.net.                 **
 *******************************************************************************
 **                                                                           **
 **                                MOPAC2016                                  **
 **                                                                           **
 *******************************************************************************

                              PM7 CALCULATION RESULTS

 *******************************************************************************
 *  CALCULATION DONE:                                Fri Oct 29 13:45:53 2021  *
 *  SINGLET    - SPIN STATE DEFINED AS A SINGLET
 *  RHF        - RESTRICTED HARTREE-FOCK CALCULATION
 *  C.I.=2     - 2 M.O.S TO BE USED IN C.I.
 *  T=         - A TIME OF 172800.0 SECONDS REQUESTED
 *  DUMP=N     - RESTART FILE WRITTEN EVERY 7200.0 SECONDS REQUESTED
 *  MECI       - M.E.C.I. WORKING TO BE PRINTED
 *******************************************************************************
RHF SINGLET C.I.=2 MECI
 comment1
 comment2
   ATOM   CHEMICAL          X               Y               Z
  NUMBER   SYMBOL      (ANGSTROMS)     (ANGSTROMS)     (ANGSTROMS)
 
     1       O         -0.50000000  *   0.00000000  *   0.00000000  *
     2       O          0.50000000  *   0.00000000  *   0.00000000  *
 


          CARTESIAN COORDINATES 

    NO.       ATOM           X           Y           Z

     1         O         -0.5000      0.0000      0.0000
     2         O          0.5000      0.0000      0.0000

 General Reference for PM7:
 "Optimization of Parameters for Semiempirical Methods VI: More Modifications to the 
 NDDO Approximations and Re-optimization of Parameters", J. J. P. Stewart, J. Mol. Mod., 1:32, 19 (2013)
 https://link.springer.com/article/10.1007/s00894-012-1667-x

           Empirical Formula: O2  =     2 atoms



      MOLECULAR POINT GROUP   :   D*h 


 SINGLET STATE CALCULATION


      RHF CALCULATION, NO. OF DOUBLY OCCUPIED LEVELS = 6


          Geometry optimization using EF

          DIAGONAL MATRIX USED AS START HESSIAN

 CYCLE:     1 TIME:   0.000 TIME LEFT:  2.00D  GRAD.:   475.888 HEAT:  34.05957
 CYCLE:     2 TIME:   0.004 TIME LEFT:  2.00D  GRAD.:   256.018 HEAT:  29.51584
 CYCLE:     3 TIME:   0.000 TIME LEFT:  2.00D  GRAD.:   108.899 HEAT:  16.30095
 CYCLE:     4 TIME:   0.000 TIME LEFT:  2.00D  GRAD.:    59.687 HEAT:  14.75941
 CYCLE:     5 TIME:   0.000 TIME LEFT:  2.00D  GRAD.:     7.203 HEAT:  14.29174
 CYCLE:     6 TIME:   0.000 TIME LEFT:  2.00D  GRAD.:     0.413 HEAT:  14.28419

     GRADIENT =  0.41287 IS LESS THAN CUTOFF =  1.00000



 -------------------------------------------------------------------------------
 RHF SINGLET C.I.=2 MECI
 comment1
 comment2


     GEOMETRY OPTIMISED USING EIGENVECTOR FOLLOWING (EF).     
     SCF FIELD WAS ACHIEVED                                   


                              PM7 CALCULATION
                                                       MOPAC2016 (Version: 21.298M)
                                                       Fri Oct 29 13:45:53 2021




          FINAL HEAT OF FORMATION =         14.28419 KCAL/MOL =      59.76507 KJ/MOL


          COSMO AREA              =         49.06 SQUARE ANGSTROMS
          COSMO VOLUME            =         31.37 CUBIC ANGSTROMS

          GRADIENT NORM           =          0.41287          =       0.29194 PER ATOM
          IONIZATION POTENTIAL    =          9.165367 EV          STATE:   1 SINGLET Delg
          HOMO LUMO ENERGIES (EV) =         -9.165 -0.912
          NO. OF FILLED LEVELS    =          6
          MOLECULAR WEIGHT        =         31.9988         POINT GROUP:  D*h 

          MOLECULAR DIMENSIONS (Angstroms)

            Atom       Atom       Distance
            O     2    O     1     1.13381
            O     2    O     1     0.00000
            O     1    O     2     0.00000


          SCF CALCULATIONS        =          7
 
          WALL-CLOCK TIME         =          0.031 SECONDS
          COMPUTATION TIME        =          0.027 SECONDS




   ATOM   CHEMICAL          X               Y               Z
  NUMBER   SYMBOL      (ANGSTROMS)     (ANGSTROMS)     (ANGSTROMS)
 
     1       O         -0.56690332  *  -0.00000000  *  -0.00000000  *
     2       O          0.56690332  *  -0.00000000  *  -0.00000000  *

                             CARTESIAN COORDINATES

   1    O       -0.566903323    -0.000000000    -0.000000000
   2    O        0.566903324    -0.000000000    -0.000000000


           Empirical Formula: O2  =     2 atoms



      MOLECULAR POINT GROUP   :   D*h 


                  EIGENVALUES  
 -32.79329 -28.41291 -17.16299 -16.72141 -15.96849  -9.16537  -0.91203   3.23353


              NET ATOMIC CHARGES AND DIPOLE CONTRIBUTIONS

  ATOM NO.   TYPE          CHARGE      No. of ELECS.   s-Pop       p-Pop       
    1          O          -0.000000        6.0000     1.95086     4.04914
    2          O           0.000000        6.0000     1.95086     4.04914
 DIPOLE           X         Y         Z       TOTAL
 POINT-CHG.     0.000    -0.000     0.000     0.000
 HYBRID        -0.000    -0.000     0.000     0.000
 SUM            0.000    -0.000     0.000     0.000


          ATOMIC ORBITAL ELECTRON POPULATIONS

     Atom    s        px        py        pz   
    1  O   1.95086   1.04914   1.50000   1.50000
    2  O   1.95086   1.04914   1.50000   1.50000


          MULTI-ELECTRON CONFIGURATION INTERACTION CALCULATION


          COMPONENT OF SPIN  =  0.0


           NO OF CONFIGURATIONS CONSIDERED = 4

 CONFIGURATIONS CONSIDERED IN C.I.      
 M.O. NUMBER :         6   7
          ENERGY

              1        1   0
          0.0000       1   0

              2        1   0
         -0.9878       0   1

              3        0   1
         -0.9878       1   0

              4        0   1
          0.0000       0   1

  STATE       ENERGY (EV)        Q.N.  SPIN   SYMMETRY              POLARIZATION
         ABSOLUTE     RELATIVE                                X           Y           Z

    1    -1.481665    0.000000     1   TRIPLET     Sig-
    2+   -0.493888    0.987777     1+  SINGLET     Delg
    4     0.493888    1.975554     1   SINGLET     Sig 
           The "+" symbol indicates the root used.

 **********************
 *                    *
 * JOB ENDED NORMALLY *
 *                    *
 **********************



 TOTAL JOB TIME:             0.05 SECONDS

 == MOPAC DONE ==
