 *******************************************************************************
 ** Site#:    0         For non-commercial use only           Version 21.178M **
 *******************************************************************************
 ** Cite this program as: MOPAC2016, Version: 21.178M, James J. P. Stewart,   **
 ** Stewart Computational Chemistry, web-site: HTTP://OpenMOPAC.net.          **
 *******************************************************************************
 **                                                                           **
 **                                MOPAC2016                                  **
 **                                                                           **
 *******************************************************************************

                              PM7 CALCULATION RESULTS

 *******************************************************************************
 *  CALCULATION DONE:                                Wed Jul 28 13:46:56 2021  *
 *  OPT        - OPTIMIZE COORDINATES OF ALL ATOMS
 *  C.I.=(N,M) - 3 DOUBLY FILLED LEVELS USED IN A C.I. INVOLVING 6 M.O.'S
 *  ROOT       - IN A C.I. CALCULATION, ROOT 1 TO BE OPTIMIZED.
 *  T=         - A TIME OF 172800.0 SECONDS REQUESTED
 *  DUMP=N     - RESTART FILE WRITTEN EVERY 7200.0 SECONDS REQUESTED
 *  GRADIENTS  - ALL GRADIENTS TO BE PRINTED
 *  MECI       - M.E.C.I. WORKING TO BE PRINTED
 *******************************************************************************
 c.i.=(6,3) meci gradients opt root=1T1
 methane

  ATOM    CHEMICAL      BOND LENGTH      BOND ANGLE     TWIST ANGLE 
 NUMBER    SYMBOL       (ANGSTROMS)      (DEGREES)       (DEGREES) 
   (I)                     NA:I           NB:NA:I       NC:NB:NA:I       NA    NB    NC 
     1       H          0.00000000       0.0000000       0.0000000        0     0     0
     2       C          1.08720813  *    0.0000000       0.0000000        1     0     0
     3       H          1.08720813  *  109.4712210  *    0.0000000        2     1     0
     4       H          1.08720813  *  109.4712210  * -120.0000000  *     2     1     3
     5       H          1.08720813  *  109.4712210  *  120.0000000  *     2     1     3
 


          CARTESIAN COORDINATES 

    NO.       ATOM           X           Y           Z

     1         H          0.0000      0.0000      0.0000
     2         C          1.0872      0.0000      0.0000
     3         H          1.4496      1.0250      0.0000
     4         H          1.4496     -0.5125     -0.8877
     5         H          1.4496     -0.5125      0.8877

 General Reference for PM7:
 "Optimization of Parameters for Semiempirical Methods VI: More Modifications to the 
 NDDO Approximations and Re-optimization of Parameters", J. J. P. Stewart, J. Mol. Mod., 1:32, 19 (2013)
 https://link.springer.com/article/10.1007/s00894-012-1667-x

           Empirical Formula: C H4  =     5 atoms



      MOLECULAR POINT GROUP   :   Td  


      RHF CALCULATION, NO. OF DOUBLY OCCUPIED LEVELS = 4


          Geometry optimization using EF

          DIAGONAL MATRIX USED AS START HESSIAN

 CYCLE:     1 TIME:   3.992 TIME LEFT:  2.00D  GRAD.:    91.627 HEAT:  240.4359
 CYCLE:     2 TIME:   3.883 TIME LEFT:  2.00D  GRAD.:    40.299 HEAT:  234.4367
 CYCLE:     3 TIME:   4.000 TIME LEFT:  2.00D  GRAD.:     4.072 HEAT:  232.8617
 CYCLE:     4 TIME:   3.910 TIME LEFT:  2.00D  GRAD.:     0.224 HEAT:  232.8441

     GRADIENT =  0.22396 IS LESS THAN CUTOFF =  1.00000



 -------------------------------------------------------------------------------
 c.i.=(6,3) meci gradients opt root=1T1
 methane



     GEOMETRY OPTIMISED USING EIGENVECTOR FOLLOWING (EF).     
     SCF FIELD WAS ACHIEVED                                   


                              PM7 CALCULATION
                                                       MOPAC2016 (Version: 21.178M)
                                                       Wed Jul 28 13:47:15 2021




          FINAL HEAT OF FORMATION =        232.84411 KCAL/MOL =     974.21977 KJ/MOL


          TOTAL ENERGY            =       -166.32153 EV  STATE:   1 SINGLET T1  
          ELECTRONIC ENERGY       =       -367.05028 EV  POINT GROUP:     Td  
          CORE-CORE REPULSION     =        200.72875 EV
          COSMO AREA              =         55.95 SQUARE ANGSTROMS
          COSMO VOLUME            =         38.07 CUBIC ANGSTROMS

          GRADIENT NORM           =          0.22396 = 0.10016 PER ATOM
          IONIZATION POTENTIAL    =         13.139706 EV
          HOMO LUMO ENERGIES (EV) =        -13.140  5.515
          NO. OF FILLED LEVELS    =          4
          MOLECULAR WEIGHT        =         16.0426

          MOLECULAR DIMENSIONS (Angstroms)

            Atom       Atom       Distance
            H     5    H     4     1.91556
            H     1    H     3     1.91556
            H     1    H     5     1.35450


          SCF CALCULATIONS        =          5
 
          WALL-CLOCK TIME         =         18.824 SECONDS
          COMPUTATION TIME        =         21.713 SECONDS

          LARGEST ATOMIC GRADIENTS

          Atom     Label                     Cartesian Gradients           Cartesian Coordinates       |Gradient|
                                           X          Y          Z        X          Y          Z

             4       H                  -0.112      0.000     -0.001    1.56404   -0.55297   -0.95778      0.112
             5       H                  -0.112      0.000      0.001    1.56404   -0.55297    0.95778      0.112
             3       H                  -0.112     -0.001      0.000    1.56405    1.10595    0.00000      0.112
             2       C                  -0.112      0.000      0.000    1.17303    0.00000    0.00000      0.112



       FINAL  POINT  AND  DERIVATIVES

   PARAMETER     ATOM    TYPE            VALUE        GRADIENT
      1          2  C    BOND            1.173034     -0.111724  KCAL/ANGSTROM
      2          3  H    BOND            1.173033     -0.111755  KCAL/ANGSTROM
      3          3  H    ANGLE         109.471227     -0.000690  KCAL/RADIAN  
      4          4  H    BOND            1.173033     -0.112219  KCAL/ANGSTROM
      5          4  H    ANGLE         109.471166      0.000276  KCAL/RADIAN  
      6          4  H    DIHEDRAL     -119.999857     -0.000633  KCAL/RADIAN  
      7          5  H    BOND            1.173033     -0.112217  KCAL/ANGSTROM
      8          5  H    ANGLE         109.471167      0.000273  KCAL/RADIAN  
      9          5  H    DIHEDRAL      119.999854      0.000636  KCAL/RADIAN  




  ATOM    CHEMICAL      BOND LENGTH      BOND ANGLE     TWIST ANGLE 
 NUMBER    SYMBOL       (ANGSTROMS)      (DEGREES)       (DEGREES) 
   (I)                     NA:I           NB:NA:I       NC:NB:NA:I       NA    NB    NC 
     1       H          0.00000000       0.0000000       0.0000000        0     0     0
     2       C          1.17303414  *    0.0000000       0.0000000        1     0     0
     3       H          1.17303314  *  109.4712273  *    0.0000000        2     1     0
     4       H          1.17303342  *  109.4711665  * -119.9998574  *     2     1     3
     5       H          1.17303341  *  109.4711669  *  119.9998541  *     2     1     3

                             CARTESIAN COORDINATES

   1    H        0.000000000     0.000000000     0.000000000
   2    C        1.173034144     0.000000000     0.000000000
   3    H        1.564045320     1.105946208     0.000000000
   4    H        1.564044237    -0.552971057    -0.957779470
   5    H        1.564044244    -0.552970997     0.957779494


           Empirical Formula: C H4  =     5 atoms



      MOLECULAR POINT GROUP   :   Td  


                  EIGENVALUES  
 -23.12198 -13.13973 -13.13972 -13.13971   5.51530   5.51531   5.51532   6.64601


              NET ATOMIC CHARGES AND DIPOLE CONTRIBUTIONS

  ATOM NO.   TYPE          CHARGE      No. of ELECS.   s-Pop       p-Pop       
    1          H           0.105173        0.8948     0.89483
    2          C          -0.420692        4.4207     1.09059     3.33010
    3          H           0.105176        0.8948     0.89482
    4          H           0.105171        0.8948     0.89483
    5          H           0.105171        0.8948     0.89483
 DIPOLE           X         Y         Z       TOTAL
 POINT-CHG.    -0.000     0.000     0.000     0.000
 HYBRID         0.000     0.000     0.000     0.000
 SUM           -0.000     0.000     0.000     0.000


          ATOMIC ORBITAL ELECTRON POPULATIONS

     Atom    s        px        py        pz   
    1  H   0.89483
    2  C   1.09059   1.11003   1.11002   1.11004
    3  H   0.89482
    4  H   0.89483
    5  H   0.89483


          MULTI-ELECTRON CONFIGURATION INTERACTION CALCULATION


          COMPONENT OF SPIN  =  0.0


           NO OF CONFIGURATIONS CONSIDERED = 400

 CONFIGURATIONS CONSIDERED IN C.I.      
 M.O. NUMBER :         2   3   4   5   6   7
          ENERGY

              1        1   1   1   0   0   0
         -0.0000       1   1   1   0   0   0

              2        1   1   1   0   0   0
          9.9003       1   1   0   1   0   0

              3        1   1   1   0   0   0
         10.2113       1   1   0   0   1   0

              4        1   1   1   0   0   0
         10.2328       1   1   0   0   0   1

              5        1   1   1   0   0   0
         10.1717       1   0   1   1   0   0

              6        1   1   1   0   0   0
          9.6377       1   0   1   0   1   0

              7        1   1   1   0   0   0
         10.5351       1   0   1   0   0   1

              8        1   1   1   0   0   0
         18.8096       1   0   0   1   1   0

              9        1   1   1   0   0   0
         19.7284       1   0   0   1   0   1

             10        1   1   1   0   0   0
         19.5054       1   0   0   0   1   1

             11        1   1   1   0   0   0
         10.2724       0   1   1   1   0   0

             12        1   1   1   0   0   0
         10.4955       0   1   1   0   1   0

             13        1   1   1   0   0   0
          9.5766       0   1   1   0   0   1

             14        1   1   1   0   0   0
         19.7680       0   1   0   1   1   0

             15        1   1   1   0   0   0
         18.8707       0   1   0   1   0   1

             16        1   1   1   0   0   0
         19.4047       0   1   0   0   1   1

             17        1   1   1   0   0   0
         19.4658       0   0   1   1   1   0

             18        1   1   1   0   0   0
         19.4443       0   0   1   1   0   1

             19        1   1   1   0   0   0
         19.1334       0   0   1   0   1   1

             20        1   1   1   0   0   0
         27.6990       0   0   0   1   1   1

             21        1   1   0   1   0   0
          9.9003       1   1   1   0   0   0

             22        1   1   0   1   0   0
         20.2050       1   1   0   1   0   0

             23        1   1   0   1   0   0
         19.9568       1   1   0   0   1   0

             24        1   1   0   1   0   0
         20.1405       1   1   0   0   0   1

             25        1   1   0   1   0   0
         20.2991       1   0   1   1   0   0

             26        1   1   0   1   0   0
         19.2059       1   0   1   0   1   0

             27        1   1   0   1   0   0
         20.2655       1   0   1   0   0   1

             28        1   1   0   1   0   0
         28.7821       1   0   0   1   1   0

             29        1   1   0   1   0   0
         29.8632       1   0   0   1   0   1

             30        1   1   0   1   0   0
         29.0809       1   0   0   0   1   1

             31        1   1   0   1   0   0
         20.5567       0   1   1   1   0   0

             32        1   1   0   1   0   0
         20.2206       0   1   1   0   1   0

             33        1   1   0   1   0   0
         19.4640       0   1   1   0   0   1

             34        1   1   0   1   0   0
         29.8975       0   1   0   1   1   0

             35        1   1   0   1   0   0
         29.1624       0   1   0   1   0   1

             36        1   1   0   1   0   0
         29.1372       0   1   0   0   1   1

             37        1   1   0   1   0   0
         29.4180       0   0   1   1   1   0

             38        1   1   0   1   0   0
         29.5587       0   0   1   1   0   1

             39        1   1   0   1   0   0
         28.6886       0   0   1   0   1   1

             40        1   1   0   1   0   0
         37.6585       0   0   0   1   1   1

             41        1   1   0   0   1   0
         10.2113       1   1   1   0   0   0

             42        1   1   0   0   1   0
         19.9568       1   1   0   1   0   0

             43        1   1   0   0   1   0
         21.9476       1   1   0   0   1   0

             44        1   1   0   0   1   0
         20.1444       1   1   0   0   0   1

             45        1   1   0   0   1   0
         19.0583       1   0   1   1   0   0

             46        1   1   0   0   1   0
         20.2042       1   0   1   0   1   0

             47        1   1   0   0   1   0
         19.2768       1   0   1   0   0   1

             48        1   1   0   0   1   0
         29.2212       1   0   0   1   1   0

             49        1   1   0   0   1   0
         28.3153       1   0   0   1   0   1

             50        1   1   0   0   1   0
         29.7721       1   0   0   0   1   1

             51        1   1   0   0   1   0
         20.4875       0   1   1   1   0   0

             52        1   1   0   0   1   0
         22.3904       0   1   1   0   1   0

             53        1   1   0   0   1   0
         19.6468       0   1   1   0   0   1

             54        1   1   0   0   1   0
         31.5081       0   1   0   1   1   0

             55        1   1   0   0   1   0
         28.7860       0   1   0   1   0   1

             56        1   1   0   0   1   0
         30.9999       0   1   0   0   1   1

             57        1   1   0   0   1   0
         30.0360       0   0   1   1   1   0

             58        1   1   0   0   1   0
         28.1898       0   0   1   1   0   1

             59        1   1   0   0   1   0
         29.5587       0   0   1   0   1   1

             60        1   1   0   0   1   0
         37.9694       0   0   0   1   1   1

             61        1   1   0   0   0   1
         10.2328       1   1   1   0   0   0

             62        1   1   0   0   0   1
         20.1405       1   1   0   1   0   0

             63        1   1   0   0   0   1
         20.1444       1   1   0   0   1   0

             64        1   1   0   0   0   1
         21.8150       1   1   0   0   0   1

             65        1   1   0   0   0   1
         20.6533       1   0   1   1   0   0

             66        1   1   0   0   0   1
         19.8122       1   0   1   0   1   0

             67        1   1   0   0   0   1
         22.3587       1   0   1   0   0   1

             68        1   1   0   0   0   1
         28.9914       1   0   0   1   1   0

             69        1   1   0   0   0   1
         31.5594       1   0   0   1   0   1

             70        1   1   0   0   0   1
         31.0293       1   0   0   0   1   1

             71        1   1   0   0   0   1
         19.2733       0   1   1   1   0   0

             72        1   1   0   0   0   1
         19.1893       0   1   1   0   1   0

             73        1   1   0   0   0   1
         19.9196       0   1   1   0   0   1

             74        1   1   0   0   0   1
         28.4692       0   1   0   1   1   0

             75        1   1   0   0   0   1
         29.2210       0   1   0   1   0   1

             76        1   1   0   0   0   1
         29.4480       0   1   0   0   1   1

             77        1   1   0   0   0   1
         28.4084       0   0   1   1   1   0

             78        1   1   0   0   0   1
         30.0360       0   0   1   1   0   1

             79        1   1   0   0   0   1
         29.4180       0   0   1   0   1   1

             80        1   1   0   0   0   1
         37.9910       0   0   0   1   1   1

             81        1   0   1   1   0   0
         10.1717       1   1   1   0   0   0

             82        1   0   1   1   0   0
         20.2991       1   1   0   1   0   0

             83        1   0   1   1   0   0
         19.0583       1   1   0   0   1   0

             84        1   0   1   1   0   0
         20.6533       1   1   0   0   0   1

             85        1   0   1   1   0   0
         21.6019       1   0   1   1   0   0

             86        1   0   1   1   0   0
         19.5162       1   0   1   0   1   0

             87        1   0   1   1   0   0
         21.9870       1   0   1   0   0   1

             88        1   0   1   1   0   0
         28.9151       1   0   0   1   1   0

             89        1   0   1   1   0   0
         31.4074       1   0   0   1   0   1

             90        1   0   1   1   0   0
         29.6326       1   0   0   0   1   1

             91        1   0   1   1   0   0
         20.5478       0   1   1   1   0   0

             92        1   0   1   1   0   0
         19.2191       0   1   1   0   1   0

             93        1   0   1   1   0   0
         19.8738       0   1   1   0   0   1

             94        1   0   1   1   0   0
         28.7187       0   1   0   1   1   0

             95        1   0   1   1   0   0
         29.3949       0   1   0   1   0   1

             96        1   0   1   1   0   0
         28.3771       0   1   0   0   1   1

             97        1   0   1   1   0   0
         29.4480       0   0   1   1   1   0

             98        1   0   1   1   0   0
         30.9999       0   0   1   1   0   1

             99        1   0   1   1   0   0
         29.1372       0   0   1   0   1   1

            100        1   0   1   1   0   0
         37.9299       0   0   0   1   1   1

            101        1   0   1   0   1   0
          9.6377       1   1   1   0   0   0

            102        1   0   1   0   1   0
         19.2059       1   1   0   1   0   0

            103        1   0   1   0   1   0
         20.2042       1   1   0   0   1   0

            104        1   0   1   0   1   0
         19.8122       1   1   0   0   0   1

            105        1   0   1   0   1   0
         19.5162       1   0   1   1   0   0

            106        1   0   1   0   1   0
         19.6695       1   0   1   0   1   0

            107        1   0   1   0   1   0
         20.1533       1   0   1   0   0   1

            108        1   0   1   0   1   0
         28.5092       1   0   0   1   1   0

            109        1   0   1   0   1   0
         29.0146       1   0   0   1   0   1

            110        1   0   1   0   1   0
         29.4788       1   0   0   0   1   1

            111        1   0   1   0   1   0
         19.6336       0   1   1   1   0   0

            112        1   0   1   0   1   0
         20.5440       0   1   1   0   1   0

            113        1   0   1   0   1   0
         19.2116       0   1   1   0   0   1

            114        1   0   1   0   1   0
         29.4844       0   1   0   1   1   0

            115        1   0   1   0   1   0
         28.1736       0   1   0   1   0   1

            116        1   0   1   0   1   0
         29.3949       0   1   0   0   1   1

            117        1   0   1   0   1   0
         29.2210       0   0   1   1   1   0

            118        1   0   1   0   1   0
         28.7860       0   0   1   1   0   1

            119        1   0   1   0   1   0
         29.1624       0   0   1   0   1   1

            120        1   0   1   0   1   0
         37.3959       0   0   0   1   1   1

            121        1   0   1   0   0   1
         10.5351       1   1   1   0   0   0

            122        1   0   1   0   0   1
         20.2655       1   1   0   1   0   0

            123        1   0   1   0   0   1
         19.2768       1   1   0   0   1   0

            124        1   0   1   0   0   1
         22.3587       1   1   0   0   0   1

            125        1   0   1   0   0   1
         21.9870       1   0   1   1   0   0

            126        1   0   1   0   0   1
         20.1533       1   0   1   0   1   0

            127        1   0   1   0   0   1
         24.1110       1   0   1   0   0   1

            128        1   0   1   0   0   1
         29.1553       1   0   0   1   1   0

            129        1   0   1   0   0   1
         33.1345       1   0   0   1   0   1

            130        1   0   1   0   0   1
         31.6118       1   0   0   0   1   1

            131        1   0   1   0   0   1
         19.2953       0   1   1   1   0   0

            132        1   0   1   0   0   1
         18.2187       0   1   1   0   1   0

            133        1   0   1   0   0   1
         20.3602       0   1   1   0   0   1

            134        1   0   1   0   0   1
         27.3214       0   1   0   1   1   0

            135        1   0   1   0   0   1
         29.4844       0   1   0   1   0   1

            136        1   0   1   0   0   1
         28.7188       0   1   0   0   1   1

            137        1   0   1   0   0   1
         28.4692       0   0   1   1   1   0

            138        1   0   1   0   0   1
         31.5081       0   0   1   1   0   1

            139        1   0   1   0   0   1
         29.8975       0   0   1   0   1   1

            140        1   0   1   0   0   1
         38.2932       0   0   0   1   1   1

            141        1   0   0   1   1   0
         18.8096       1   1   1   0   0   0

            142        1   0   0   1   1   0
         28.7821       1   1   0   1   0   0

            143        1   0   0   1   1   0
         29.2212       1   1   0   0   1   0

            144        1   0   0   1   1   0
         28.9914       1   1   0   0   0   1

            145        1   0   0   1   1   0
         28.9151       1   0   1   1   0   0

            146        1   0   0   1   1   0
         28.5092       1   0   1   0   1   0

            147        1   0   0   1   1   0
         29.1553       1   0   1   0   0   1

            148        1   0   0   1   1   0
         37.7532       1   0   0   1   1   0

            149        1   0   0   1   1   0
         38.4208       1   0   0   1   0   1

            150        1   0   0   1   1   0
         38.3259       1   0   0   0   1   1

            151        1   0   0   1   1   0
         29.1895       0   1   1   1   0   0

            152        1   0   0   1   1   0
         29.5406       0   1   1   0   1   0

            153        1   0   0   1   1   0
         28.3706       0   1   1   0   0   1

            154        1   0   0   1   1   0
         38.8853       0   1   0   1   1   0

            155        1   0   0   1   1   0
         37.7368       0   1   0   1   0   1

            156        1   0   0   1   1   0
         38.3989       0   1   0   0   1   1

            157        1   0   0   1   1   0
         38.4447       0   0   1   1   1   0

            158        1   0   0   1   1   0
         38.1720       0   0   1   1   0   1

            159        1   0   0   1   1   0
         37.9892       0   0   1   0   1   1

            160        1   0   0   1   1   0
         46.6269       0   0   0   1   1   1

            161        1   0   0   1   0   1
         19.7284       1   1   1   0   0   0

            162        1   0   0   1   0   1
         29.8632       1   1   0   1   0   0

            163        1   0   0   1   0   1
         28.3153       1   1   0   0   1   0

            164        1   0   0   1   0   1
         31.5594       1   1   0   0   0   1

            165        1   0   0   1   0   1
         31.4074       1   0   1   1   0   0

            166        1   0   0   1   0   1
         29.0146       1   0   1   0   1   0

            167        1   0   0   1   0   1
         33.1345       1   0   1   0   0   1

            168        1   0   0   1   0   1
         38.4208       1   0   0   1   1   0

            169        1   0   0   1   0   1
         42.5623       1   0   0   1   0   1

            170        1   0   0   1   0   1
         40.4804       1   0   0   0   1   1

            171        1   0   0   1   0   1
         28.8726       0   1   1   1   0   0

            172        1   0   0   1   0   1
         27.2369       0   1   1   0   1   0

            173        1   0   0   1   0   1
         29.5406       0   1   1   0   0   1

            174        1   0   0   1   0   1
         36.7438       0   1   0   1   1   0

            175        1   0   0   1   0   1
         39.0691       0   1   0   1   0   1

            176        1   0   0   1   0   1
         37.7443       0   1   0   0   1   1

            177        1   0   0   1   0   1
         37.7144       0   0   1   1   1   0

            178        1   0   0   1   0   1
         40.9155       0   0   1   1   0   1

            179        1   0   0   1   0   1
         38.7458       0   0   1   0   1   1

            180        1   0   0   1   0   1
         47.5458       0   0   0   1   1   1

            181        1   0   0   0   1   1
         19.5054       1   1   1   0   0   0

            182        1   0   0   0   1   1
         29.0809       1   1   0   1   0   0

            183        1   0   0   0   1   1
         29.7721       1   1   0   0   1   0

            184        1   0   0   0   1   1
         31.0293       1   1   0   0   0   1

            185        1   0   0   0   1   1
         29.6326       1   0   1   1   0   0

            186        1   0   0   0   1   1
         29.4788       1   0   1   0   1   0

            187        1   0   0   0   1   1
         31.6118       1   0   1   0   0   1

            188        1   0   0   0   1   1
         38.3259       1   0   0   1   1   0

            189        1   0   0   0   1   1
         40.4804       1   0   0   1   0   1

            190        1   0   0   0   1   1
         40.6376       1   0   0   0   1   1

            191        1   0   0   0   1   1
         28.2694       0   1   1   1   0   0

            192        1   0   0   0   1   1
         28.8726       0   1   1   0   1   0

            193        1   0   0   0   1   1
         29.1895       0   1   1   0   0   1

            194        1   0   0   0   1   1
         37.8204       0   1   0   1   1   0

            195        1   0   0   0   1   1
         38.1587       0   1   0   1   0   1

            196        1   0   0   0   1   1
         39.0730       0   1   0   0   1   1

            197        1   0   0   0   1   1
         37.7985       0   0   1   1   1   0

            198        1   0   0   0   1   1
         39.0126       0   0   1   1   0   1

            199        1   0   0   0   1   1
         39.0819       0   0   1   0   1   1

            200        1   0   0   0   1   1
         47.3227       0   0   0   1   1   1

            201        0   1   1   1   0   0
         10.2724       1   1   1   0   0   0

            202        0   1   1   1   0   0
         20.5567       1   1   0   1   0   0

            203        0   1   1   1   0   0
         20.4875       1   1   0   0   1   0

            204        0   1   1   1   0   0
         19.2733       1   1   0   0   0   1

            205        0   1   1   1   0   0
         20.5478       1   0   1   1   0   0

            206        0   1   1   1   0   0
         19.6336       1   0   1   0   1   0

            207        0   1   1   1   0   0
         19.2953       1   0   1   0   0   1

            208        0   1   1   1   0   0
         29.1895       1   0   0   1   1   0

            209        0   1   1   1   0   0
         28.8726       1   0   0   1   0   1

            210        0   1   1   1   0   0
         28.2694       1   0   0   0   1   1

            211        0   1   1   1   0   0
         22.1125       0   1   1   1   0   0

            212        0   1   1   1   0   0
         21.9553       0   1   1   0   1   0

            213        0   1   1   1   0   0
         19.8008       0   1   1   0   0   1

            214        0   1   1   1   0   0
         31.6118       0   1   0   1   1   0

            215        0   1   1   1   0   0
         29.4788       0   1   0   1   0   1

            216        0   1   1   1   0   0
         29.6326       0   1   0   0   1   1

            217        0   1   1   1   0   0
         31.0293       0   0   1   1   1   0

            218        0   1   1   1   0   0
         29.7722       0   0   1   1   0   1

            219        0   1   1   1   0   0
         29.0810       0   0   1   0   1   1

            220        0   1   1   1   0   0
         38.0306       0   0   0   1   1   1

            221        0   1   1   0   1   0
         10.4955       1   1   1   0   0   0

            222        0   1   1   0   1   0
         20.2206       1   1   0   1   0   0

            223        0   1   1   0   1   0
         22.3904       1   1   0   0   1   0

            224        0   1   1   0   1   0
         19.1893       1   1   0   0   0   1

            225        0   1   1   0   1   0
         19.2191       1   0   1   1   0   0

            226        0   1   1   0   1   0
         20.5440       1   0   1   0   1   0

            227        0   1   1   0   1   0
         18.2187       1   0   1   0   0   1

            228        0   1   1   0   1   0
         29.5406       1   0   0   1   1   0

            229        0   1   1   0   1   0
         27.2369       1   0   0   1   0   1

            230        0   1   1   0   1   0
         28.8726       1   0   0   0   1   1

            231        0   1   1   0   1   0
         21.9553       0   1   1   1   0   0

            232        0   1   1   0   1   0
         24.0372       0   1   1   0   1   0

            233        0   1   1   0   1   0
         19.8957       0   1   1   0   0   1

            234        0   1   1   0   1   0
         33.1345       0   1   0   1   1   0

            235        0   1   1   0   1   0
         29.0146       0   1   0   1   0   1

            236        0   1   1   0   1   0
         31.4074       0   1   0   0   1   1

            237        0   1   1   0   1   0
         31.5595       0   0   1   1   1   0

            238        0   1   1   0   1   0
         28.3153       0   0   1   1   0   1

            239        0   1   1   0   1   0
         29.8632       0   0   1   0   1   1

            240        0   1   1   0   1   0
         38.2536       0   0   0   1   1   1

            241        0   1   1   0   0   1
          9.5766       1   1   1   0   0   0

            242        0   1   1   0   0   1
         19.4640       1   1   0   1   0   0

            243        0   1   1   0   0   1
         19.6468       1   1   0   0   1   0

            244        0   1   1   0   0   1
         19.9196       1   1   0   0   0   1

            245        0   1   1   0   0   1
         19.8738       1   0   1   1   0   0

            246        0   1   1   0   0   1
         19.2116       1   0   1   0   1   0

            247        0   1   1   0   0   1
         20.3602       1   0   1   0   0   1

            248        0   1   1   0   0   1
         28.3706       1   0   0   1   1   0

            249        0   1   1   0   0   1
         29.5406       1   0   0   1   0   1

            250        0   1   1   0   0   1
         29.1895       1   0   0   0   1   1

            251        0   1   1   0   0   1
         19.8008       0   1   1   1   0   0

            252        0   1   1   0   0   1
         19.8957       0   1   1   0   1   0

            253        0   1   1   0   0   1
         19.2281       0   1   1   0   0   1

            254        0   1   1   0   0   1
         29.1553       0   1   0   1   1   0

            255        0   1   1   0   0   1
         28.5092       0   1   0   1   0   1

            256        0   1   1   0   0   1
         28.9151       0   1   0   0   1   1

            257        0   1   1   0   0   1
         28.9915       0   0   1   1   1   0

            258        0   1   1   0   0   1
         29.2212       0   0   1   1   0   1

            259        0   1   1   0   0   1
         28.7821       0   0   1   0   1   1

            260        0   1   1   0   0   1
         37.3348       0   0   0   1   1   1

            261        0   1   0   1   1   0
         19.7680       1   1   1   0   0   0

            262        0   1   0   1   1   0
         29.8975       1   1   0   1   0   0

            263        0   1   0   1   1   0
         31.5081       1   1   0   0   1   0

            264        0   1   0   1   1   0
         28.4692       1   1   0   0   0   1

            265        0   1   0   1   1   0
         28.7187       1   0   1   1   0   0

            266        0   1   0   1   1   0
         29.4844       1   0   1   0   1   0

            267        0   1   0   1   1   0
         27.3214       1   0   1   0   0   1

            268        0   1   0   1   1   0
         38.8853       1   0   0   1   1   0

            269        0   1   0   1   1   0
         36.7438       1   0   0   1   0   1

            270        0   1   0   1   1   0
         37.8204       1   0   0   0   1   1

            271        0   1   0   1   1   0
         31.6118       0   1   1   1   0   0

            272        0   1   0   1   1   0
         33.1345       0   1   1   0   1   0

            273        0   1   0   1   1   0
         29.1553       0   1   1   0   0   1

            274        0   1   0   1   1   0
         42.6362       0   1   0   1   1   0

            275        0   1   0   1   1   0
         38.6785       0   1   0   1   0   1

            276        0   1   0   1   1   0
         40.5121       0   1   0   0   1   1

            277        0   1   0   1   1   0
         40.8839       0   0   1   1   1   0

            278        0   1   0   1   1   0
         37.8020       0   0   1   1   0   1

            279        0   1   0   1   1   0
         38.7907       0   0   1   0   1   1

            280        0   1   0   1   1   0
         47.5854       0   0   0   1   1   1

            281        0   1   0   1   0   1
         18.8707       1   1   1   0   0   0

            282        0   1   0   1   0   1
         29.1624       1   1   0   1   0   0

            283        0   1   0   1   0   1
         28.7860       1   1   0   0   1   0

            284        0   1   0   1   0   1
         29.2210       1   1   0   0   0   1

            285        0   1   0   1   0   1
         29.3949       1   0   1   1   0   0

            286        0   1   0   1   0   1
         28.1736       1   0   1   0   1   0

            287        0   1   0   1   0   1
         29.4844       1   0   1   0   0   1

            288        0   1   0   1   0   1
         37.7368       1   0   0   1   1   0

            289        0   1   0   1   0   1
         39.0691       1   0   0   1   0   1

            290        0   1   0   1   0   1
         38.1587       1   0   0   0   1   1

            291        0   1   0   1   0   1
         29.4788       0   1   1   1   0   0

            292        0   1   0   1   0   1
         29.0146       0   1   1   0   1   0

            293        0   1   0   1   0   1
         28.5092       0   1   1   0   0   1

            294        0   1   0   1   0   1
         38.6785       0   1   0   1   1   0

            295        0   1   0   1   0   1
         38.1946       0   1   0   1   0   1

            296        0   1   0   1   0   1
         38.0413       0   1   0   0   1   1

            297        0   1   0   1   0   1
         38.3374       0   0   1   1   1   0

            298        0   1   0   1   0   1
         38.7294       0   0   1   1   0   1

            299        0   1   0   1   0   1
         37.7311       0   0   1   0   1   1

            300        0   1   0   1   0   1
         46.6880       0   0   0   1   1   1

            301        0   1   0   0   1   1
         19.4047       1   1   1   0   0   0

            302        0   1   0   0   1   1
         29.1372       1   1   0   1   0   0

            303        0   1   0   0   1   1
         30.9999       1   1   0   0   1   0

            304        0   1   0   0   1   1
         29.4480       1   1   0   0   0   1

            305        0   1   0   0   1   1
         28.3771       1   0   1   1   0   0

            306        0   1   0   0   1   1
         29.3949       1   0   1   0   1   0

            307        0   1   0   0   1   1
         28.7188       1   0   1   0   0   1

            308        0   1   0   0   1   1
         38.3989       1   0   0   1   1   0

            309        0   1   0   0   1   1
         37.7443       1   0   0   1   0   1

            310        0   1   0   0   1   1
         39.0730       1   0   0   0   1   1

            311        0   1   0   0   1   1
         29.6326       0   1   1   1   0   0

            312        0   1   0   0   1   1
         31.4074       0   1   1   0   1   0

            313        0   1   0   0   1   1
         28.9151       0   1   1   0   0   1

            314        0   1   0   0   1   1
         40.5121       0   1   0   1   1   0

            315        0   1   0   0   1   1
         38.0413       0   1   0   1   0   1

            316        0   1   0   0   1   1
         40.1271       0   1   0   0   1   1

            317        0   1   0   0   1   1
         39.1785       0   0   1   1   1   0

            318        0   1   0   0   1   1
         37.5835       0   0   1   1   0   1

            319        0   1   0   0   1   1
         38.8243       0   0   1   0   1   1

            320        0   1   0   0   1   1
         47.2220       0   0   0   1   1   1

            321        0   0   1   1   1   0
         19.4658       1   1   1   0   0   0

            322        0   0   1   1   1   0
         29.4180       1   1   0   1   0   0

            323        0   0   1   1   1   0
         30.0360       1   1   0   0   1   0

            324        0   0   1   1   1   0
         28.4084       1   1   0   0   0   1

            325        0   0   1   1   1   0
         29.4480       1   0   1   1   0   0

            326        0   0   1   1   1   0
         29.2210       1   0   1   0   1   0

            327        0   0   1   1   1   0
         28.4692       1   0   1   0   0   1

            328        0   0   1   1   1   0
         38.4447       1   0   0   1   1   0

            329        0   0   1   1   1   0
         37.7144       1   0   0   1   0   1

            330        0   0   1   1   1   0
         37.7985       1   0   0   0   1   1

            331        0   0   1   1   1   0
         31.0293       0   1   1   1   0   0

            332        0   0   1   1   1   0
         31.5595       0   1   1   0   1   0

            333        0   0   1   1   1   0
         28.9915       0   1   1   0   0   1

            334        0   0   1   1   1   0
         40.8839       0   1   0   1   1   0

            335        0   0   1   1   1   0
         38.3374       0   1   0   1   0   1

            336        0   0   1   1   1   0
         39.1785       0   1   0   0   1   1

            337        0   0   1   1   1   0
         40.3402       0   0   1   1   1   0

            338        0   0   1   1   1   0
         38.6696       0   0   1   1   0   1

            339        0   0   1   1   1   0
         38.6657       0   0   1   0   1   1

            340        0   0   1   1   1   0
         47.2831       0   0   0   1   1   1

            341        0   0   1   1   0   1
         19.4443       1   1   1   0   0   0

            342        0   0   1   1   0   1
         29.5587       1   1   0   1   0   0

            343        0   0   1   1   0   1
         28.1898       1   1   0   0   1   0

            344        0   0   1   1   0   1
         30.0360       1   1   0   0   0   1

            345        0   0   1   1   0   1
         30.9999       1   0   1   1   0   0

            346        0   0   1   1   0   1
         28.7860       1   0   1   0   1   0

            347        0   0   1   1   0   1
         31.5081       1   0   1   0   0   1

            348        0   0   1   1   0   1
         38.1720       1   0   0   1   1   0

            349        0   0   1   1   0   1
         40.9155       1   0   0   1   0   1

            350        0   0   1   1   0   1
         39.0126       1   0   0   0   1   1

            351        0   0   1   1   0   1
         29.7722       0   1   1   1   0   0

            352        0   0   1   1   0   1
         28.3153       0   1   1   0   1   0

            353        0   0   1   1   0   1
         29.2212       0   1   1   0   0   1

            354        0   0   1   1   0   1
         37.8020       0   1   0   1   1   0

            355        0   0   1   1   0   1
         38.7294       0   1   0   1   0   1

            356        0   0   1   1   0   1
         37.5835       0   1   0   0   1   1

            357        0   0   1   1   0   1
         38.6696       0   0   1   1   1   0

            358        0   0   1   1   0   1
         40.4728       0   0   1   1   0   1

            359        0   0   1   1   0   1
         38.4820       0   0   1   0   1   1

            360        0   0   1   1   0   1
         47.2616       0   0   0   1   1   1

            361        0   0   1   0   1   1
         19.1334       1   1   1   0   0   0

            362        0   0   1   0   1   1
         28.6886       1   1   0   1   0   0

            363        0   0   1   0   1   1
         29.5587       1   1   0   0   1   0

            364        0   0   1   0   1   1
         29.4180       1   1   0   0   0   1

            365        0   0   1   0   1   1
         29.1372       1   0   1   1   0   0

            366        0   0   1   0   1   1
         29.1624       1   0   1   0   1   0

            367        0   0   1   0   1   1
         29.8975       1   0   1   0   0   1

            368        0   0   1   0   1   1
         37.9892       1   0   0   1   1   0

            369        0   0   1   0   1   1
         38.7458       1   0   0   1   0   1

            370        0   0   1   0   1   1
         39.0819       1   0   0   0   1   1

            371        0   0   1   0   1   1
         29.0810       0   1   1   1   0   0

            372        0   0   1   0   1   1
         29.8632       0   1   1   0   1   0

            373        0   0   1   0   1   1
         28.7821       0   1   1   0   0   1

            374        0   0   1   0   1   1
         38.7907       0   1   0   1   1   0

            375        0   0   1   0   1   1
         37.7311       0   1   0   1   0   1

            376        0   0   1   0   1   1
         38.8243       0   1   0   0   1   1

            377        0   0   1   0   1   1
         38.6657       0   0   1   1   1   0

            378        0   0   1   0   1   1
         38.4820       0   0   1   1   0   1

            379        0   0   1   0   1   1
         38.7302       0   0   1   0   1   1

            380        0   0   1   0   1   1
         46.9507       0   0   0   1   1   1

            381        0   0   0   1   1   1
         27.6990       1   1   1   0   0   0

            382        0   0   0   1   1   1
         37.6585       1   1   0   1   0   0

            383        0   0   0   1   1   1
         37.9694       1   1   0   0   1   0

            384        0   0   0   1   1   1
         37.9910       1   1   0   0   0   1

            385        0   0   0   1   1   1
         37.9299       1   0   1   1   0   0

            386        0   0   0   1   1   1
         37.3959       1   0   1   0   1   0

            387        0   0   0   1   1   1
         38.2932       1   0   1   0   0   1

            388        0   0   0   1   1   1
         46.6269       1   0   0   1   1   0

            389        0   0   0   1   1   1
         47.5458       1   0   0   1   0   1

            390        0   0   0   1   1   1
         47.3227       1   0   0   0   1   1

            391        0   0   0   1   1   1
         38.0306       0   1   1   1   0   0

            392        0   0   0   1   1   1
         38.2536       0   1   1   0   1   0

            393        0   0   0   1   1   1
         37.3348       0   1   1   0   0   1

            394        0   0   0   1   1   1
         47.5854       0   1   0   1   1   0

            395        0   0   0   1   1   1
         46.6880       0   1   0   1   0   1

            396        0   0   0   1   1   1
         47.2220       0   1   0   0   1   1

            397        0   0   0   1   1   1
         47.2831       0   0   1   1   1   0

            398        0   0   0   1   1   1
         47.2616       0   0   1   1   0   1

            399        0   0   0   1   1   1
         46.9507       0   0   1   0   1   1

            400        0   0   0   1   1   1
         55.5755       0   0   0   1   1   1


 DIAGONAL OF C.I. MATRIX
    -0.000000     9.900341    10.211303    10.232815    10.171716
     9.637719    10.535060    18.809590    19.728435    19.505396
    10.272422    10.495470     9.576635    19.768034    18.870703
    19.404710    19.465814    19.444311    19.133360    27.698957
     9.900341    20.204966    19.956751    20.140498    20.299097
    19.205922    20.265499    28.782077    29.863158    29.080942
    20.556742    20.220613    19.464013    29.897461    29.162365
    29.137195    29.417996    29.558729    28.688600    37.658482
    10.211303    19.956751    21.947586    20.144397    19.058306
    20.204183    19.276822    29.221161    28.315304    29.772139
    20.487461    22.390383    19.646847    31.508054    28.786022
    30.999902    30.036014    28.189811    29.558733    37.969437
    10.232815    20.140498    20.144397    21.815047    20.653287
    19.812227    22.358706    28.991440    31.559423    31.029322
    19.273307    19.189293    19.919596    28.469199    29.221006
    29.447950    28.408393    30.036028    29.418014    37.990953
    10.171716    20.299097    19.058306    20.653287    21.601904
    19.516154    21.986964    28.915065    31.407379    29.632588
    20.547845    19.219141    19.873775    28.718745    29.394883
    28.377138    29.447956    30.999923    29.137219    37.929857
     9.637719    19.205922    20.204183    19.812227    19.516154
    19.669456    20.153329    28.509189    29.014566    29.478827
    19.633605    20.543953    19.211650    29.484379    28.173580
    29.394886    29.221016    28.786045    29.162393    37.395853
    10.535060    20.265499    19.276822    22.358706    21.986964
    20.153329    24.111041    29.155298    33.134514    31.611838
    19.295280    18.218691    20.360227    27.321353    29.484393
    28.718762    28.469223    31.508092    29.897502    38.293198
    18.809590    28.782077    29.221161    28.991440    28.915065
    28.509189    29.155298    37.753207    38.420819    38.325902
    29.189455    29.540625    28.370557    38.885336    37.736772
    38.398901    38.444728    38.171993    37.989163    46.626907
    19.728435    29.863158    28.315304    31.559423    31.407379
    29.014566    33.134514    38.420819    42.562271    40.480417
    28.872634    27.236867    29.540639    36.743813    39.069089
    37.744281    37.714439    40.915543    38.745776    47.545756
    19.505396    29.080942    29.772139    31.029322    29.632588
    29.478827    31.611838    38.325902    40.480417    40.637615
    28.269353    28.872637    29.189472    37.820406    38.158745
    39.072988    37.798457    39.012624    39.081909    47.322711
    10.272422    20.556742    20.487461    19.273307    20.547845
    19.633605    19.295280    29.189455    28.872634    28.269353
    22.112491    21.955297    19.800796    31.611839    29.478842
    29.632607    31.029347    29.772179    29.080985    38.030561
    10.495470    20.220613    22.390383    19.189293    19.219141
    20.543953    18.218691    29.540625    27.236867    28.872637
    21.955297    24.037154    19.895716    33.134519    29.014585
    31.407401    31.559452    28.315347    29.863204    38.253603
     9.576635    19.464013    19.646847    19.919596    19.873775
    19.211650    20.360227    28.370557    29.540639    29.189472
    19.800796    19.895716    19.228118    29.155317    28.509223
    28.915102    28.991483    29.221217    28.782138    37.334772
    19.768034    29.897461    31.508054    28.469199    28.718745
    29.484379    27.321353    38.885336    36.743813    37.820406
    31.611839    33.134519    29.155317    42.636169    38.678470
    40.512109    40.883858    37.801988    38.790667    47.585351
    18.870703    29.162365    28.786022    29.221006    29.394883
    28.173580    29.484393    37.736772    39.069089    38.158745
    29.478842    29.014585    28.509223    38.678470    38.194611
    38.041313    38.337392    38.729362    37.731105    46.688024
    19.404710    29.137195    30.999902    29.447950    28.377138
    29.394886    28.718762    38.398901    37.744281    39.072988
    29.632607    31.407401    28.915102    40.512109    38.041313
    40.127066    39.178456    37.583489    38.824283    47.222024
    19.465814    29.417996    30.036014    28.408393    29.447956
    29.221016    28.469223    38.444728    37.714439    37.798457
    31.029347    31.559452    28.991483    40.883858    38.337392
    39.178456    40.340223    38.669586    38.665691    47.283130
    19.444311    29.558729    28.189811    30.036028    30.999923
    28.786045    31.508092    38.171993    40.915543    39.012624
    29.772179    28.315347    29.221217    37.801988    38.729362
    37.583489    38.669586    40.472789    38.481957    47.261631
    19.133360    28.688600    29.558733    29.418014    29.137219
    29.162393    29.897502    37.989163    38.745776    39.081909
    29.080985    29.863204    28.782138    38.790667    37.731105
    38.824283    38.665691    38.481957    38.730176    46.950673
    27.698957    37.658482    37.969437    37.990953    37.929857
    37.395853    38.293198    46.626907    47.545756    47.322711
    38.030561    38.253603    37.334772    47.585351    46.688024
    47.222024    47.283130    47.261631    46.950673    55.575455

  STATE       ENERGY (EV)        Q.N.  SPIN   SYMMETRY              POLARIZATION
         ABSOLUTE     RELATIVE                                X           Y           Z

    1    -0.174557    0.000000     1   SINGLET     A1  
    2     7.905624    8.080182     1   TRIPLET     A1  
    3     8.929111    9.103669     1   TRIPLET     T2  
    6     9.004448    9.179006     2   SINGLET     A1        0.1979      0.0293      0.2991
    7    10.062802   10.237359     1   TRIPLET     E   
    9+   10.302734   10.477291     1+  SINGLET     T1        0.0021      0.0031      0.0043
   12    10.344717   10.519274     1   TRIPLET     T1  
   15    10.593160   10.767718     1   SINGLET     T2        0.1059      0.0170      0.1633
   18    10.599462   10.774019     1   SINGLET     E         0.0816      0.0130      0.1230
   20    15.970032   16.144590     1   QUINTET     A1  
   21    16.879483   17.054040     3   SINGLET     A1        0.0000      0.0000      0.0000
   22    17.044083   17.218640     1   QUINTET     T2  
   25    17.425816   17.600374     2   TRIPLET     T2  
   28    17.766288   17.940845     2   TRIPLET     A1  
   29    18.079615   18.254172     1   QUINTET     E   
   31    18.261923   18.436481     4   SINGLET     A1        0.0000      0.0000      0.0000
   32    18.264306   18.438863     2   SINGLET     T2        0.0009      0.0009      0.0010
   35    18.298582   18.473139     2   TRIPLET     T1  
   38    18.358540   18.533097     3   TRIPLET     T2  
   41    18.433742   18.608300     1   QUINTET     T1  
   44    18.520117   18.694675     2   SINGLET     E         0.0001      0.0001      0.0002
   46    18.822550   18.997108     2   TRIPLET     E   
   48    18.877319   19.051876     3   TRIPLET     T1  
   51    18.917442   19.092000     4   TRIPLET     T2  
   54    18.987317   19.161875     4   TRIPLET     T1  
   57    19.006835   19.181393     2   SINGLET     T1        0.0083      0.0090      0.0094
   60    19.171058   19.345616     3   SINGLET     E         0.0010      0.0012      0.0013
   62    19.228155   19.402713     3   SINGLET     T2        0.0002      0.0003      0.0004
   65    19.310602   19.485159     3   TRIPLET     E   
   67    19.398782   19.573339     1   SINGLET     A2        0.0826      0.0826      0.0826
   68    19.668177   19.842734     4   TRIPLET     E   
   70    19.735193   19.909750     5   TRIPLET     T1  
   73    19.848803   20.023360     5   TRIPLET     T2  
   76    20.002187   20.176744     6   TRIPLET     T1  
   79    20.063182   20.237739     3   SINGLET     T1        0.1661      0.1869      0.1838
   82    20.340769   20.515327     4   SINGLET     T2        0.0058      0.0056      0.0066
   85    20.494916   20.669474     4   SINGLET     T1        0.0050      0.0051      0.0059
   88    20.499911   20.674469     6   TRIPLET     T2  
   91    20.540065   20.714622     5   SINGLET     A1        0.0005      0.0001      0.0009
   92    20.786162   20.960720     1   TRIPLET     A2  
   93    20.967614   21.142172     4   SINGLET     E         0.0012      0.0011      0.0018
   95    20.983697   21.158254     5   SINGLET     T2        0.1259      0.1245      0.1430
   98    21.413026   21.587583     2   TRIPLET     A2  
   99    21.688959   21.863516     5   SINGLET     E         0.1030      0.1147      0.1074
  101    22.078868   22.253426     7   TRIPLET     T1  
  104    22.581838   22.756396     8   TRIPLET     T1  
  107    22.876759   23.051316     5   SINGLET     T1        0.1334      0.1310      0.1137
  110    23.620447   23.795004     6   SINGLET     T2        0.0008      0.0006      0.0009
  113    23.625566   23.800123     6   SINGLET     E         0.0009      0.0013      0.0011
  115    24.032724   24.207281     1   SEPTET      A1  
  116    24.382068   24.556625     7   SINGLET     T2        0.0153      0.0156      0.0181
  119    25.159196   25.333753     6   SINGLET     A1        0.0000      0.0001      0.0000
  120    25.723810   25.898367     3   TRIPLET     A1  
  121    25.771064   25.945621     2   QUINTET     T2  
  124    26.482554   26.657111     2   QUINTET     A1  
  125    26.564611   26.739169     7   TRIPLET     T2  
  128    26.822928   26.997485     3   QUINTET     T2  
  131    26.932892   27.107450     7   SINGLET     A1        0.0001      0.0000      0.0002
  132    27.108995   27.283552     8   TRIPLET     T2  
  135    27.222884   27.397441     2   QUINTET     E   
  137    27.403023   27.577580     2   QUINTET     T1  
  140    27.464015   27.638573     4   TRIPLET     A1  
  141    27.515975   27.690533     5   TRIPLET     E   
  143    27.532423   27.706981     9   TRIPLET     T2  
  146    27.586312   27.760869     9   TRIPLET     T1  
  149    27.643717   27.818274     6   SINGLET     T1        0.0001      0.0001      0.0001
  152    27.661947   27.836504    10   TRIPLET     T1  
  155    27.662250   27.836808    10   TRIPLET     T2  
  158    27.878071   28.052628     3   QUINTET     E   
  160    27.925797   28.100355     8   SINGLET     A1        0.0002      0.0000      0.0003
  161    27.935069   28.109626     6   TRIPLET     E   
  163    27.964155   28.138713     7   SINGLET     E         0.0004      0.0004      0.0005
  165    28.172435   28.346992     8   SINGLET     T2        0.0002      0.0001      0.0003
  168    28.227966   28.402524     2   SINGLET     A2        0.0000      0.0000      0.0000
  169    28.229288   28.403845     7   TRIPLET     E   
  171    28.235280   28.409837     3   QUINTET     T1  
  174    28.282151   28.456708    11   TRIPLET     T1  
  177    28.404765   28.579322     7   SINGLET     T1        0.0004      0.0004      0.0005
  180    28.469954   28.644511     9   SINGLET     T2        0.0009      0.0007      0.0010
  183    28.476630   28.651187    12   TRIPLET     T1  
  186    28.602764   28.777322    11   TRIPLET     T2  
  189    28.802921   28.977478     8   SINGLET     E         0.0001      0.0000      0.0001
  191    28.807426   28.981984     8   SINGLET     T1  
  194    29.114583   29.289141     8   TRIPLET     E   
  196    29.160606   29.335164    13   TRIPLET     T1  
  199    29.196106   29.370664    12   TRIPLET     T2  
  202    29.251388   29.425946     3   TRIPLET     A2  
  203    29.356770   29.531327    14   TRIPLET     T1  
  206    29.370825   29.545382     9   SINGLET     T1        0.0007      0.0003      0.0008
  209    29.389394   29.563951    13   TRIPLET     T2  
  212    29.411000   29.585557    10   SINGLET     T2        0.0000      0.0000      0.0000
  215    29.490897   29.665454     9   SINGLET     E         0.0009      0.0008      0.0009
  217    29.614790   29.789347     5   TRIPLET     A1  
  218    29.744007   29.918565    15   TRIPLET     T1  
  221    29.875722   30.050279     9   TRIPLET     E   
  223    30.117922   30.292480    10   SINGLET     T1        0.0003      0.0002      0.0005
  226    30.120509   30.295067    11   SINGLET     T2        0.0003      0.0002      0.0004
  229    30.151549   30.326106    14   TRIPLET     T2  
  232    30.170641   30.345199     4   TRIPLET     A2  
  233    30.208418   30.382975    10   TRIPLET     E   
  235    30.312017   30.486574     5   TRIPLET     A2  
  236    30.331232   30.505790    12   SINGLET     T2        0.0001      0.0001      0.0002
  239    30.446367   30.620925     9   SINGLET     A1        0.0002      0.0000      0.0002
  240    30.497897   30.672455     3   SINGLET     A2        0.0001      0.0001      0.0001
  241    30.527780   30.702337    13   SINGLET     T2  
  244    31.263927   31.438485     4   SINGLET     A2        0.0001      0.0001      0.0001
  245    31.343496   31.518053    16   TRIPLET     T1  
  248    31.545063   31.719620    17   TRIPLET     T1  
  251    31.771953   31.946510    10   SINGLET     E         0.0000      0.0000      0.0000
  253    31.995634   32.170191    11   SINGLET     T1        0.0006      0.0001      0.0010
  256    32.019246   32.193803    18   TRIPLET     T1  
  259    32.208140   32.382698    12   SINGLET     T1        0.0001      0.0001      0.0001
  262    32.398196   32.572753    13   SINGLET     T1        0.0000      0.0000      0.0001
  265    32.438952   32.613510    15   TRIPLET     T2  
  268    32.940743   33.115301    11   TRIPLET     E   
  270    33.028672   33.203229    11   SINGLET     E   
  272    33.059829   33.234386    16   TRIPLET     T2  
  275    33.290881   33.465439    14   SINGLET     T2        0.0007      0.0005      0.0007
  278    33.345945   33.520502     6   TRIPLET     A1  
  279    34.549787   34.724344    15   SINGLET     T2  
  282    34.673738   34.848296     3   QUINTET     A1  
  283    35.552449   35.727006    10   SINGLET     A1  
  284    35.604626   35.779183     4   QUINTET     T2  
  287    35.711332   35.885889    11   SINGLET     A1        0.0001      0.0000      0.0001
  288    36.151716   36.326273    17   TRIPLET     T2  
  291    36.377613   36.552170     7   TRIPLET     A1  
  292    36.872027   37.046584    12   SINGLET     A1  
  293    36.876691   37.051248    19   TRIPLET     T1  
  296    36.974733   37.149290    16   SINGLET     T2  
  299    36.995638   37.170195    18   TRIPLET     T2  
  302    37.029305   37.203863     4   QUINTET     E   
  304    37.078778   37.253336    12   SINGLET     E   
  306    37.204551   37.379109     4   QUINTET     T1  
  309    37.590039   37.764596    12   TRIPLET     E   
  311    37.691262   37.865819    20   TRIPLET     T1  
  314    37.731927   37.906484    14   SINGLET     T1        0.0000      0.0000      0.0000
  317    37.765254   37.939811    19   TRIPLET     T2  
  320    37.792032   37.966590    21   TRIPLET     T1  
  323    37.856222   38.030779    13   SINGLET     E   
  325    37.932060   38.106618    13   TRIPLET     E   
  327    38.156013   38.330570     5   SINGLET     A2  
  328    38.223092   38.397649    17   SINGLET     T2  
  331    38.505896   38.680453    14   TRIPLET     E   
  333    38.518672   38.693230    22   TRIPLET     T1  
  336    38.686550   38.861107    20   TRIPLET     T2  
  339    38.691975   38.866532    23   TRIPLET     T1  
  342    38.993251   39.167808    13   SINGLET     A1  
  343    39.023307   39.197865    15   SINGLET     T1  
  346    39.098370   39.272928    16   SINGLET     T1  
  349    39.289473   39.464030    18   SINGLET     T2  
  352    39.352209   39.526766    21   TRIPLET     T2  
  355    39.685516   39.860074     6   TRIPLET     A2  
  356    39.845065   40.019622    19   SINGLET     T2  
  359    39.851841   40.026399    14   SINGLET     E   
  361    40.166863   40.341420     7   TRIPLET     A2  
  362    40.322458   40.497015    15   SINGLET     E   
  364    40.938325   41.112882    24   TRIPLET     T1  
  367    41.396926   41.571483    25   TRIPLET     T1  
  370    41.534981   41.709538    17   SINGLET     T1  
  373    42.343920   42.518477    20   SINGLET     T2  
  376    42.362158   42.536715    16   SINGLET     E   
  378    43.103156   43.277714    21   SINGLET     T2  
  381    43.836135   44.010692    14   SINGLET     A1  
  382    45.254152   45.428709     8   TRIPLET     A1  
  383    46.249828   46.424386    15   SINGLET     A1  
  384    46.270895   46.445452    22   TRIPLET     T2  
  387    47.525860   47.700418    15   TRIPLET     E   
  389    47.803044   47.977602    26   TRIPLET     T1  
  392    47.867254   48.041812    18   SINGLET     T1  
  395    48.092819   48.267376    22   SINGLET     T2  
  398    48.134101   48.308659    17   SINGLET     E   
  400    55.788586   55.963143    16   SINGLET     A1  
 The "+" symbol indicates the root used.

 **********************
 *                    *
 * JOB ENDED NORMALLY *
 *                    *
 **********************



 TOTAL JOB TIME:            27.48 SECONDS

 == MOPAC DONE ==
