 *******************************************************************************
 ** Cite this program as: MOPAC2016, Version: 21.298M, James J. P. Stewart,   **
 **                           web-site: HTTP://OpenMOPAC.net.                 **
 *******************************************************************************
 **                                                                           **
 **                                MOPAC2016                                  **
 **                                                                           **
 *******************************************************************************

                              PM7 CALCULATION RESULTS

 *******************************************************************************
 *  CALCULATION DONE:                                Fri Oct 29 13:45:56 2021  *
 *  T=         - A TIME OF 172800.0 SECONDS REQUESTED
 *  DUMP=N     - RESTART FILE WRITTEN EVERY 7200.0 SECONDS REQUESTED
 *******************************************************************************

 Propane

   ATOM   CHEMICAL          X               Y               Z
  NUMBER   SYMBOL      (ANGSTROMS)     (ANGSTROMS)     (ANGSTROMS)
 
     1       C         -2.47938629  *   1.94891579  *   0.11190868  *
     2       C         -1.29827276  *   0.98387702  *   0.00729518  *
     3       C         -3.81010175  *   1.21964142  *  -0.07647847  *
     4       H         -1.38347707  *   0.16741450  *   0.73288952  *
     5       H         -0.34844936  *   1.49531165  *   0.19480817  *
     6       H         -1.23847661  *   0.53154082  *  -0.98851859  *
     7       H         -2.37857497  *   2.75130968  *  -0.64360323  *
     8       H         -2.46534850  *   2.45775798  *   1.09469749  *
     9       H         -3.85388474  *   0.71068126  *  -1.04535583  *
    10       H         -4.65461095  *   1.91488898  *  -0.02947366  *
    11       H         -3.96289721  *   0.46065065  *   0.69868957  *
 


          CARTESIAN COORDINATES 

    NO.       ATOM           X           Y           Z

     1         C         -2.4794      1.9489      0.1119
     2         C         -1.2983      0.9839      0.0073
     3         C         -3.8101      1.2196     -0.0765
     4         H         -1.3835      0.1674      0.7329
     5         H         -0.3484      1.4953      0.1948
     6         H         -1.2385      0.5315     -0.9885
     7         H         -2.3786      2.7513     -0.6436
     8         H         -2.4653      2.4578      1.0947
     9         H         -3.8539      0.7107     -1.0454
    10         H         -4.6546      1.9149     -0.0295
    11         H         -3.9629      0.4607      0.6987

 General Reference for PM7:
 "Optimization of Parameters for Semiempirical Methods VI: More Modifications to the 
 NDDO Approximations and Re-optimization of Parameters", J. J. P. Stewart, J. Mol. Mod., 1:32, 19 (2013)
 https://link.springer.com/article/10.1007/s00894-012-1667-x

           Empirical Formula: C3 H8  =    11 atoms



      MOLECULAR POINT GROUP   :   C2v 


      RHF CALCULATION, NO. OF DOUBLY OCCUPIED LEVELS = 10


          Geometry optimization using EF

     GRADIENT =  0.80919 IS LESS THAN CUTOFF =  1.00000



 -------------------------------------------------------------------------------

 Propane



     GRADIENTS WERE INITIALLY ACCEPTABLY SMALL                
     SCF FIELD WAS ACHIEVED                                   


                              PM7 CALCULATION
                                                       MOPAC2016 (Version: 21.298M)
                                                       Fri Oct 29 13:45:56 2021




          FINAL HEAT OF FORMATION =        -23.07796 KCAL/MOL =     -96.55818 KJ/MOL


          COSMO AREA              =         96.08 SQUARE ANGSTROMS
          COSMO VOLUME            =         78.97 CUBIC ANGSTROMS

          GRADIENT NORM           =          0.80919          =       0.24398 PER ATOM
          IONIZATION POTENTIAL    =         11.388121 EV
          HOMO LUMO ENERGIES (EV) =        -11.388  4.304
          NO. OF FILLED LEVELS    =         10
          MOLECULAR WEIGHT        =         44.0962         POINT GROUP:  C2v 

          MOLECULAR DIMENSIONS (Angstroms)

            Atom       Atom       Distance
            H    10    H     5     4.33236
            H     7    H    11     2.81279
            H     8    H     6     2.76473


          SCF CALCULATIONS        =          1
 
          WALL-CLOCK TIME         =          0.012 SECONDS
          COMPUTATION TIME        =          0.011 SECONDS




   ATOM   CHEMICAL          X               Y               Z
  NUMBER   SYMBOL      (ANGSTROMS)     (ANGSTROMS)     (ANGSTROMS)
 
     1       C         -2.47938629  *   1.94891579  *   0.11190868  *
     2       C         -1.29827276  *   0.98387702  *   0.00729518  *
     3       C         -3.81010175  *   1.21964142  *  -0.07647847  *
     4       H         -1.38347707  *   0.16741450  *   0.73288952  *
     5       H         -0.34844936  *   1.49531165  *   0.19480817  *
     6       H         -1.23847661  *   0.53154082  *  -0.98851859  *
     7       H         -2.37857497  *   2.75130968  *  -0.64360323  *
     8       H         -2.46534850  *   2.45775798  *   1.09469749  *
     9       H         -3.85388474  *   0.71068126  *  -1.04535583  *
    10       H         -4.65461095  *   1.91488898  *  -0.02947366  *
    11       H         -3.96289721  *   0.46065065  *   0.69868957  *

                             CARTESIAN COORDINATES

   1    C       -2.479386294     1.948915792     0.111908676
   2    C       -1.298272763     0.983877020     0.007295183
   3    C       -3.810101751     1.219641420    -0.076478473
   4    H       -1.383477073     0.167414504     0.732889522
   5    H       -0.348449360     1.495311647     0.194808165
   6    H       -1.238476615     0.531540822    -0.988518590
   7    H       -2.378574965     2.751309683    -0.643603231
   8    H       -2.465348500     2.457757976     1.094697491
   9    H       -3.853884743     0.710681255    -1.045355833
  10    H       -4.654610952     1.914888983    -0.029473663
  11    H       -3.962897209     0.460650646     0.698689570


           Empirical Formula: C3 H8  =    11 atoms



      MOLECULAR POINT GROUP   :   C2v 


                  EIGENVALUES  
 -28.15640 -23.79260 -20.12336 -15.81218 -15.09327 -13.91035 -13.15373 -12.00868
 -11.96952 -11.38812   4.30394   4.65419   5.50889   5.89530   5.94634   5.98328
   6.23871   6.66641   7.06481   7.13415


              NET ATOMIC CHARGES AND DIPOLE CONTRIBUTIONS

  ATOM NO.   TYPE          CHARGE      No. of ELECS.   s-Pop       p-Pop       
    1          C          -0.229492        4.2295     1.05073     3.17876
    2          C          -0.438891        4.4389     1.05203     3.38686
    3          C          -0.438886        4.4389     1.05208     3.38680
    4          H           0.142498        0.8575     0.85750
    5          H           0.138604        0.8614     0.86140
    6          H           0.141915        0.8581     0.85809
    7          H           0.130650        0.8694     0.86935
    8          H           0.130628        0.8694     0.86937
    9          H           0.142368        0.8576     0.85763
   10          H           0.138594        0.8614     0.86141
   11          H           0.142012        0.8580     0.85799
 DIPOLE           X         Y         Z       TOTAL
 POINT-CHG.     0.002     0.023     0.005     0.023
 HYBRID        -0.007    -0.078    -0.014     0.079
 SUM           -0.005    -0.055    -0.009     0.056


          ATOMIC ORBITAL ELECTRON POPULATIONS

     Atom    s        px        py        pz   
    1  C   1.05073   0.97480   1.05223   1.15173
    2  C   1.05203   1.09019   1.12293   1.17373
    3  C   1.05208   1.07082   1.14323   1.17275
    4  H   0.85750
    5  H   0.86140
    6  H   0.85809
    7  H   0.86935
    8  H   0.86937
    9  H   0.85763
   10  H   0.86141
   11  H   0.85799
 *******************************************************************************
 ** Cite this program as: MOPAC2016, Version: 21.298M, James J. P. Stewart,   **
 **                           web-site: HTTP://OpenMOPAC.net.                 **
 *******************************************************************************
 **                                                                           **
 **                                MOPAC2016                                  **
 **                                                                           **
 *******************************************************************************

                              PM7 CALCULATION RESULTS

 *******************************************************************************
 *  CALCULATION DONE:                                Fri Oct 29 13:45:56 2021  *
 *  T=         - A TIME OF 172800.0 SECONDS REQUESTED
 *  DUMP=N     - RESTART FILE WRITTEN EVERY 7200.0 SECONDS REQUESTED
 *  VECTORS    - FINAL EIGENVECTORS TO BE PRINTED
 *******************************************************************************
VECTORS
 Propane

   ATOM   CHEMICAL          X               Y               Z
  NUMBER   SYMBOL      (ANGSTROMS)     (ANGSTROMS)     (ANGSTROMS)
 
     1       C         -2.47938629  *   1.94891579  *   0.11190868  *
     2       C         -1.29827276  *   0.98387702  *   0.00729518  *
     3       C         -3.81010175  *   1.21964142  *  -0.07647847  *
     4       H         -1.38347707  *   0.16741450  *   0.73288952  *
     5       H         -0.34844936  *   1.49531165  *   0.19480817  *
     6       H         -1.23847661  *   0.53154082  *  -0.98851859  *
     7       H         -2.37857497  *   2.75130968  *  -0.64360323  *
     8       H         -2.46534850  *   2.45775798  *   1.09469749  *
     9       H         -3.85388474  *   0.71068126  *  -1.04535583  *
    10       H         -4.65461095  *   1.91488898  *  -0.02947366  *
    11       H         -3.96289721  *   0.46065065  *   0.69868957  *
 


          CARTESIAN COORDINATES 

    NO.       ATOM           X           Y           Z

     1         C         -2.4794      1.9489      0.1119
     2         C         -1.2983      0.9839      0.0073
     3         C         -3.8101      1.2196     -0.0765
     4         H         -1.3835      0.1674      0.7329
     5         H         -0.3484      1.4953      0.1948
     6         H         -1.2385      0.5315     -0.9885
     7         H         -2.3786      2.7513     -0.6436
     8         H         -2.4653      2.4578      1.0947
     9         H         -3.8539      0.7107     -1.0454
    10         H         -4.6546      1.9149     -0.0295
    11         H         -3.9629      0.4607      0.6987

 General Reference for PM7:
 "Optimization of Parameters for Semiempirical Methods VI: More Modifications to the 
 NDDO Approximations and Re-optimization of Parameters", J. J. P. Stewart, J. Mol. Mod., 1:32, 19 (2013)
 https://link.springer.com/article/10.1007/s00894-012-1667-x

           Empirical Formula: C3 H8  =    11 atoms



      MOLECULAR POINT GROUP   :   C2v 


      RHF CALCULATION, NO. OF DOUBLY OCCUPIED LEVELS = 10


          Geometry optimization using EF

     GRADIENT =  0.80919 IS LESS THAN CUTOFF =  1.00000



 -------------------------------------------------------------------------------
 VECTORS
 Propane



     GRADIENTS WERE INITIALLY ACCEPTABLY SMALL                
     SCF FIELD WAS ACHIEVED                                   


                              PM7 CALCULATION
                                                       MOPAC2016 (Version: 21.298M)
                                                       Fri Oct 29 13:45:56 2021




          FINAL HEAT OF FORMATION =        -23.07796 KCAL/MOL =     -96.55818 KJ/MOL


          COSMO AREA              =         96.08 SQUARE ANGSTROMS
          COSMO VOLUME            =         78.97 CUBIC ANGSTROMS

          GRADIENT NORM           =          0.80919          =       0.24398 PER ATOM
          IONIZATION POTENTIAL    =         11.388121 EV
          HOMO LUMO ENERGIES (EV) =        -11.388  4.304
          NO. OF FILLED LEVELS    =         10
          MOLECULAR WEIGHT        =         44.0962         POINT GROUP:  C2v 

          MOLECULAR DIMENSIONS (Angstroms)

            Atom       Atom       Distance
            H    10    H     5     4.33236
            H     7    H    11     2.81279
            H     8    H     6     2.76473


          SCF CALCULATIONS        =          1
 
          WALL-CLOCK TIME         =          0.023 SECONDS
          COMPUTATION TIME        =          0.022 SECONDS




   ATOM   CHEMICAL          X               Y               Z
  NUMBER   SYMBOL      (ANGSTROMS)     (ANGSTROMS)     (ANGSTROMS)
 
     1       C         -2.47938629  *   1.94891579  *   0.11190868  *
     2       C         -1.29827276  *   0.98387702  *   0.00729518  *
     3       C         -3.81010175  *   1.21964142  *  -0.07647847  *
     4       H         -1.38347707  *   0.16741450  *   0.73288952  *
     5       H         -0.34844936  *   1.49531165  *   0.19480817  *
     6       H         -1.23847661  *   0.53154082  *  -0.98851859  *
     7       H         -2.37857497  *   2.75130968  *  -0.64360323  *
     8       H         -2.46534850  *   2.45775798  *   1.09469749  *
     9       H         -3.85388474  *   0.71068126  *  -1.04535583  *
    10       H         -4.65461095  *   1.91488898  *  -0.02947366  *
    11       H         -3.96289721  *   0.46065065  *   0.69868957  *

                             CARTESIAN COORDINATES

   1    C       -2.479386294     1.948915792     0.111908676
   2    C       -1.298272763     0.983877020     0.007295183
   3    C       -3.810101751     1.219641420    -0.076478473
   4    H       -1.383477073     0.167414504     0.732889522
   5    H       -0.348449360     1.495311647     0.194808165
   6    H       -1.238476615     0.531540822    -0.988518590
   7    H       -2.378574965     2.751309683    -0.643603231
   8    H       -2.465348500     2.457757976     1.094697491
   9    H       -3.853884743     0.710681255    -1.045355833
  10    H       -4.654610952     1.914888983    -0.029473663
  11    H       -3.962897209     0.460650646     0.698689570


           Empirical Formula: C3 H8  =    11 atoms



      MOLECULAR POINT GROUP   :   C2v 


                EIGENVECTORS  


   Root No.       2         3         4         5         6         7         8         9

                 1 b2      2 a1      1 b1      3 a1      2 b2      1 a2      3 b2      4 a1  

               -23.793   -20.123   -15.812   -15.093   -13.910   -13.154   -12.009   -11.970
  
  S   C    1    0.0000    0.4716    0.0003   -0.0962    0.0000    0.0003   -0.0006   -0.0185
  Px  C    1    0.2924    0.0228   -0.0259    0.0362    0.4296   -0.0036   -0.4588    0.0608
  Py  C    1   -0.0275    0.2592   -0.0893    0.4163   -0.0399   -0.0012    0.0606    0.5066
  Pz  C    1    0.0096    0.0448    0.5236    0.0739    0.0143   -0.0004   -0.0113    0.0861
  S   C    2    0.5106   -0.2644   -0.0001    0.0281   -0.0102    0.0004   -0.0730   -0.0655
  Px  C    2    0.0791   -0.1534   -0.0212    0.4828   -0.0031   -0.0260    0.5203    0.0145
  Py  C    2   -0.0033    0.2321   -0.0697    0.1454    0.5177   -0.0928    0.0094   -0.4455
  Pz  C    2    0.0031    0.0314    0.4116    0.0496    0.0901    0.5364    0.0246   -0.0714
  S   C    3   -0.5106   -0.2646   -0.0005    0.0281    0.0102    0.0001    0.0682   -0.0705
  Px  C    3    0.0784    0.1914   -0.0185   -0.4492   -0.0941    0.0287    0.5027   -0.1274
  Py  C    3   -0.0114    0.1997   -0.0703    0.2338   -0.5081    0.0944   -0.1357   -0.4264
  Pz  C    3    0.0019    0.0430    0.4114    0.0181   -0.0939   -0.5363    0.0013   -0.0785
  S   H    4    0.2362   -0.2118    0.2199   -0.0639   -0.2326    0.3086   -0.0665    0.1919
  S   H    5    0.2770   -0.1388    0.0131    0.3547    0.1780    0.0198    0.3232   -0.2034
  S   H    6    0.2394   -0.2068   -0.2335   -0.0401   -0.2122   -0.3273   -0.0410    0.1647
  S   H    7    0.0001    0.3143   -0.2848    0.1264    0.0001   -0.0008    0.0072    0.2424
  S   H    8   -0.0002    0.3141    0.2843    0.1285    0.0001   -0.0008    0.0095    0.2391
  S   H    9   -0.2371   -0.2106   -0.2230   -0.0594    0.2309    0.3111    0.0729    0.1800
  S   H   10   -0.2771   -0.1386   -0.0088    0.3550   -0.1777    0.0113   -0.3370   -0.1809
  S   H   11   -0.2385   -0.2082    0.2305   -0.0456    0.2139   -0.3256    0.0595    0.1684


   Root No.      10        11        12        13        14        15        16        17

                 2 b1      4 b2      5 a1      3 b1      6 a1      2 a2      5 b2      4 b1  

               -11.388     4.304     4.654     5.509     5.895     5.946     5.983     6.239
  
  S   C    1   -0.0000   -0.0009   -0.3003    0.0000   -0.1679    0.0266   -0.0003    0.0002
  Px  C    1   -0.0250    0.6866    0.0485   -0.0218    0.0115    0.0005   -0.1143   -0.0224
  Py  C    1   -0.0886   -0.0626    0.5776   -0.0732    0.1238   -0.0166    0.0096   -0.0798
  Pz  C    1    0.5349    0.0241    0.1001    0.4349    0.0212   -0.0027    0.0029    0.4697
  S   C    2    0.0000   -0.1529    0.1389    0.0004   -0.0038    0.0007    0.0111   -0.0008
  Px  C    2    0.0143    0.3831   -0.2823   -0.0123   -0.3758    0.0718    0.2491    0.0115
  Py  C    2    0.0541   -0.2597    0.3443   -0.0467   -0.2318    0.1010    0.3800    0.0515
  Pz  C    2   -0.3353   -0.0258    0.0434    0.2905   -0.1213   -0.4315    0.0607   -0.3476
  S   C    3   -0.0005    0.1538    0.1379    0.0009   -0.0038    0.0009   -0.0114   -0.0012
  Px  C    3    0.0143    0.4246    0.3353   -0.0138    0.3250   -0.0726    0.1796    0.0138
  Py  C    3    0.0551    0.1861    0.2845   -0.0497   -0.3157   -0.0232   -0.4195    0.0644
  Pz  C    3   -0.3350    0.0515    0.0638    0.2890    0.0299    0.4454   -0.0612   -0.3448
  S   H    4   -0.2231   -0.0265    0.1337   -0.2648   -0.1325    0.3904    0.2602    0.2515
  S   H    5   -0.0159   -0.1431   -0.0714   -0.0196    0.4604   -0.0348   -0.4181    0.0253
  S   H    6    0.2387   -0.0343    0.1203    0.2835   -0.2008   -0.3757    0.1958   -0.2755
  S   H    7   -0.3598   -0.0002   -0.1631    0.4067    0.0515   -0.0092    0.0045    0.3513
  S   H    8    0.3617   -0.0009   -0.1632   -0.4071    0.0512   -0.0094   -0.0041   -0.3510
  S   H    9    0.2281    0.0290    0.1296    0.2688   -0.1179    0.4040   -0.2383   -0.2555
  S   H   10    0.0073    0.1428   -0.0723    0.0088    0.4550   -0.0605    0.4219   -0.0141
  S   H   11   -0.2343    0.0332    0.1236   -0.2789   -0.2097   -0.3626   -0.2207    0.2717


              NET ATOMIC CHARGES AND DIPOLE CONTRIBUTIONS

  ATOM NO.   TYPE          CHARGE      No. of ELECS.   s-Pop       p-Pop       
    1          C          -0.229492        4.2295     1.05073     3.17876
    2          C          -0.438891        4.4389     1.05203     3.38686
    3          C          -0.438886        4.4389     1.05208     3.38680
    4          H           0.142498        0.8575     0.85750
    5          H           0.138604        0.8614     0.86140
    6          H           0.141915        0.8581     0.85809
    7          H           0.130650        0.8694     0.86935
    8          H           0.130628        0.8694     0.86937
    9          H           0.142368        0.8576     0.85763
   10          H           0.138594        0.8614     0.86141
   11          H           0.142012        0.8580     0.85799
 DIPOLE           X         Y         Z       TOTAL
 POINT-CHG.     0.002     0.023     0.005     0.023
 HYBRID        -0.007    -0.078    -0.014     0.079
 SUM           -0.005    -0.055    -0.009     0.056


          ATOMIC ORBITAL ELECTRON POPULATIONS

     Atom    s        px        py        pz   
    1  C   1.05073   0.97480   1.05223   1.15173
    2  C   1.05203   1.09019   1.12293   1.17373
    3  C   1.05208   1.07082   1.14323   1.17275
    4  H   0.85750
    5  H   0.86140
    6  H   0.85809
    7  H   0.86935
    8  H   0.86937
    9  H   0.85763
   10  H   0.86141
   11  H   0.85799
 *******************************************************************************
 ** Cite this program as: MOPAC2016, Version: 21.298M, James J. P. Stewart,   **
 **                           web-site: HTTP://OpenMOPAC.net.                 **
 *******************************************************************************
 **                                                                           **
 **                                MOPAC2016                                  **
 **                                                                           **
 *******************************************************************************

                              PM7 CALCULATION RESULTS

 *******************************************************************************
 *  CALCULATION DONE:                                Fri Oct 29 13:45:56 2021  *
 *  UHF        - UNRESTRICTED HARTREE-FOCK CALCULATION
 *  T=         - A TIME OF 172800.0 SECONDS REQUESTED
 *  DUMP=N     - RESTART FILE WRITTEN EVERY 7200.0 SECONDS REQUESTED
 *******************************************************************************
UHF
 Propane

   ATOM   CHEMICAL          X               Y               Z
  NUMBER   SYMBOL      (ANGSTROMS)     (ANGSTROMS)     (ANGSTROMS)
 
     1       C         -2.47938629  *   1.94891579  *   0.11190868  *
     2       C         -1.29827276  *   0.98387702  *   0.00729518  *
     3       C         -3.81010175  *   1.21964142  *  -0.07647847  *
     4       H         -1.38347707  *   0.16741450  *   0.73288952  *
     5       H         -0.34844936  *   1.49531165  *   0.19480817  *
     6       H         -1.23847661  *   0.53154082  *  -0.98851859  *
     7       H         -2.37857497  *   2.75130968  *  -0.64360323  *
     8       H         -2.46534850  *   2.45775798  *   1.09469749  *
     9       H         -3.85388474  *   0.71068126  *  -1.04535583  *
    10       H         -4.65461095  *   1.91488898  *  -0.02947366  *
    11       H         -3.96289721  *   0.46065065  *   0.69868957  *
 


          CARTESIAN COORDINATES 

    NO.       ATOM           X           Y           Z

     1         C         -2.4794      1.9489      0.1119
     2         C         -1.2983      0.9839      0.0073
     3         C         -3.8101      1.2196     -0.0765
     4         H         -1.3835      0.1674      0.7329
     5         H         -0.3484      1.4953      0.1948
     6         H         -1.2385      0.5315     -0.9885
     7         H         -2.3786      2.7513     -0.6436
     8         H         -2.4653      2.4578      1.0947
     9         H         -3.8539      0.7107     -1.0454
    10         H         -4.6546      1.9149     -0.0295
    11         H         -3.9629      0.4607      0.6987

 General Reference for PM7:
 "Optimization of Parameters for Semiempirical Methods VI: More Modifications to the 
 NDDO Approximations and Re-optimization of Parameters", J. J. P. Stewart, J. Mol. Mod., 1:32, 19 (2013)
 https://link.springer.com/article/10.1007/s00894-012-1667-x

           Empirical Formula: C3 H8  =    11 atoms



      MOLECULAR POINT GROUP   :   C2v 


          UHF CALCULATION, NO. OF ALPHA ELECTRONS =   10
                           NO. OF BETA  ELECTRONS =   10

          Geometry optimization using EF

     GRADIENT =  0.80851 IS LESS THAN CUTOFF =  1.00000



 -------------------------------------------------------------------------------
 UHF
 Propane



     GRADIENTS WERE INITIALLY ACCEPTABLY SMALL                
     SCF FIELD WAS ACHIEVED                                   


                              PM7 CALCULATION
                                                       MOPAC2016 (Version: 21.298M)
                                                       Fri Oct 29 13:45:56 2021




          FINAL HEAT OF FORMATION =        -23.07799 KCAL/MOL =     -96.55830 KJ/MOL


          COSMO AREA              =         96.08 SQUARE ANGSTROMS
          COSMO VOLUME            =         78.97 CUBIC ANGSTROMS

          GRADIENT NORM           =          0.80851          =       0.24378 PER ATOM
          IONIZATION POTENTIAL    =         11.388142 EV
          ALPHA SOMO LUMO (EV)    =        -11.388  4.304
          BETA  SOMO LUMO (EV)    =        -11.388  4.304
          NO. OF ALPHA ELECTRONS  =         10
          NO. OF BETA  ELECTRONS  =         10
          MOLECULAR WEIGHT        =         44.0962         POINT GROUP:  C2v 

          MOLECULAR DIMENSIONS (Angstroms)

            Atom       Atom       Distance
            H    10    H     5     4.33236
            H     7    H    11     2.81279
            H     8    H     6     2.76473


          SCF CALCULATIONS        =          1
 
          WALL-CLOCK TIME         =          0.035 SECONDS
          COMPUTATION TIME        =          0.033 SECONDS




   ATOM   CHEMICAL          X               Y               Z
  NUMBER   SYMBOL      (ANGSTROMS)     (ANGSTROMS)     (ANGSTROMS)
 
     1       C         -2.47938629  *   1.94891579  *   0.11190868  *
     2       C         -1.29827276  *   0.98387702  *   0.00729518  *
     3       C         -3.81010175  *   1.21964142  *  -0.07647847  *
     4       H         -1.38347707  *   0.16741450  *   0.73288952  *
     5       H         -0.34844936  *   1.49531165  *   0.19480817  *
     6       H         -1.23847661  *   0.53154082  *  -0.98851859  *
     7       H         -2.37857497  *   2.75130968  *  -0.64360323  *
     8       H         -2.46534850  *   2.45775798  *   1.09469749  *
     9       H         -3.85388474  *   0.71068126  *  -1.04535583  *
    10       H         -4.65461095  *   1.91488898  *  -0.02947366  *
    11       H         -3.96289721  *   0.46065065  *   0.69868957  *

                             CARTESIAN COORDINATES

   1    C       -2.479386294     1.948915792     0.111908676
   2    C       -1.298272763     0.983877020     0.007295183
   3    C       -3.810101751     1.219641420    -0.076478473
   4    H       -1.383477073     0.167414504     0.732889522
   5    H       -0.348449360     1.495311647     0.194808165
   6    H       -1.238476615     0.531540822    -0.988518590
   7    H       -2.378574965     2.751309683    -0.643603231
   8    H       -2.465348500     2.457757976     1.094697491
   9    H       -3.853884743     0.710681255    -1.045355833
  10    H       -4.654610952     1.914888983    -0.029473663
  11    H       -3.962897209     0.460650646     0.698689570


           Empirical Formula: C3 H8  =    11 atoms



      MOLECULAR POINT GROUP   :   C2v 


          ALPHA EIGENVALUES  
 -28.15642 -23.79261 -20.12337 -15.81220 -15.09330 -13.91039 -13.15375 -12.00869
 -11.96958 -11.38814   4.30393   4.65413   5.50887   5.89528   5.94632   5.98325
   6.23869   6.66639   7.06480   7.13415


           BETA EIGENVALUES 
 -28.15642 -23.79262 -20.12338 -15.81220 -15.09329 -13.91036 -13.15376 -12.00872
 -11.96953 -11.38816   4.30390   4.65417   5.50887   5.89530   5.94632   5.98328
   6.23868   6.66638   7.06480   7.13414


              NET ATOMIC CHARGES AND DIPOLE CONTRIBUTIONS

  ATOM NO.   TYPE          CHARGE      No. of ELECS.   s-Pop       p-Pop       
    1          C          -0.229491        4.2295     1.05072     3.17877
    2          C          -0.438876        4.4389     1.05203     3.38684
    3          C          -0.438890        4.4389     1.05207     3.38682
    4          H           0.142497        0.8575     0.85750
    5          H           0.138591        0.8614     0.86141
    6          H           0.141916        0.8581     0.85808
    7          H           0.130645        0.8694     0.86935
    8          H           0.130635        0.8694     0.86937
    9          H           0.142368        0.8576     0.85763
   10          H           0.138596        0.8614     0.86140
   11          H           0.142009        0.8580     0.85799
 DIPOLE           X         Y         Z       TOTAL
 POINT-CHG.     0.002     0.022     0.005     0.023
 HYBRID        -0.007    -0.078    -0.014     0.079
 SUM           -0.005    -0.055    -0.009     0.056


          ATOMIC ORBITAL ELECTRON POPULATIONS

     Atom    s        px        py        pz   
    1  C   1.05072   0.97480   1.05225   1.15173
    2  C   1.05203   1.09018   1.12294   1.17372
    3  C   1.05207   1.07082   1.14325   1.17275
    4  H   0.85750
    5  H   0.86141
    6  H   0.85808
    7  H   0.86935
    8  H   0.86937
    9  H   0.85763
   10  H   0.86140
   11  H   0.85799


                    (SZ)    =    0.000000
                    (S**2)  =    0.000000


          ATOMIC ORBITAL SPIN POPULATIONS

    Atom   Total    s     px     py     pz   
         Atomic
    1  C  0.0000  0.000 -0.000  0.000 -0.000
    2  C -0.0001 -0.000 -0.000 -0.000 -0.000
    3  C  0.0001  0.000 -0.000  0.000  0.000
    4  H  0.0000  0.000
    5  H  0.0000  0.000
    6  H  0.0000  0.000
    7  H -0.0000 -0.000
    8  H  0.0000  0.000
    9  H -0.0000 -0.000
   10  H -0.0000 -0.000
   11  H -0.0000 -0.000
 *******************************************************************************
 ** Cite this program as: MOPAC2016, Version: 21.298M, James J. P. Stewart,   **
 **                           web-site: HTTP://OpenMOPAC.net.                 **
 *******************************************************************************
 **                                                                           **
 **                                MOPAC2016                                  **
 **                                                                           **
 *******************************************************************************

                              PM7 CALCULATION RESULTS

 *******************************************************************************
 *  CALCULATION DONE:                                Fri Oct 29 13:45:56 2021  *
 *  UHF        - UNRESTRICTED HARTREE-FOCK CALCULATION
 *  T=         - A TIME OF 172800.0 SECONDS REQUESTED
 *  DUMP=N     - RESTART FILE WRITTEN EVERY 7200.0 SECONDS REQUESTED
 *  VECTORS    - FINAL EIGENVECTORS TO BE PRINTED
 *******************************************************************************
UHF VECTORS
 Propane

   ATOM   CHEMICAL          X               Y               Z
  NUMBER   SYMBOL      (ANGSTROMS)     (ANGSTROMS)     (ANGSTROMS)
 
     1       C         -2.47938629  *   1.94891579  *   0.11190868  *
     2       C         -1.29827276  *   0.98387702  *   0.00729518  *
     3       C         -3.81010175  *   1.21964142  *  -0.07647847  *
     4       H         -1.38347707  *   0.16741450  *   0.73288952  *
     5       H         -0.34844936  *   1.49531165  *   0.19480817  *
     6       H         -1.23847661  *   0.53154082  *  -0.98851859  *
     7       H         -2.37857497  *   2.75130968  *  -0.64360323  *
     8       H         -2.46534850  *   2.45775798  *   1.09469749  *
     9       H         -3.85388474  *   0.71068126  *  -1.04535583  *
    10       H         -4.65461095  *   1.91488898  *  -0.02947366  *
    11       H         -3.96289721  *   0.46065065  *   0.69868957  *
 


          CARTESIAN COORDINATES 

    NO.       ATOM           X           Y           Z

     1         C         -2.4794      1.9489      0.1119
     2         C         -1.2983      0.9839      0.0073
     3         C         -3.8101      1.2196     -0.0765
     4         H         -1.3835      0.1674      0.7329
     5         H         -0.3484      1.4953      0.1948
     6         H         -1.2385      0.5315     -0.9885
     7         H         -2.3786      2.7513     -0.6436
     8         H         -2.4653      2.4578      1.0947
     9         H         -3.8539      0.7107     -1.0454
    10         H         -4.6546      1.9149     -0.0295
    11         H         -3.9629      0.4607      0.6987

 General Reference for PM7:
 "Optimization of Parameters for Semiempirical Methods VI: More Modifications to the 
 NDDO Approximations and Re-optimization of Parameters", J. J. P. Stewart, J. Mol. Mod., 1:32, 19 (2013)
 https://link.springer.com/article/10.1007/s00894-012-1667-x

           Empirical Formula: C3 H8  =    11 atoms



      MOLECULAR POINT GROUP   :   C2v 


          UHF CALCULATION, NO. OF ALPHA ELECTRONS =   10
                           NO. OF BETA  ELECTRONS =   10

          Geometry optimization using EF

     GRADIENT =  0.80851 IS LESS THAN CUTOFF =  1.00000



 -------------------------------------------------------------------------------
 UHF VECTORS
 Propane



     GRADIENTS WERE INITIALLY ACCEPTABLY SMALL                
     SCF FIELD WAS ACHIEVED                                   


                              PM7 CALCULATION
                                                       MOPAC2016 (Version: 21.298M)
                                                       Fri Oct 29 13:45:56 2021




          FINAL HEAT OF FORMATION =        -23.07799 KCAL/MOL =     -96.55830 KJ/MOL


          COSMO AREA              =         96.08 SQUARE ANGSTROMS
          COSMO VOLUME            =         78.97 CUBIC ANGSTROMS

          GRADIENT NORM           =          0.80851          =       0.24378 PER ATOM
          IONIZATION POTENTIAL    =         11.388142 EV
          ALPHA SOMO LUMO (EV)    =        -11.388  4.304
          BETA  SOMO LUMO (EV)    =        -11.388  4.304
          NO. OF ALPHA ELECTRONS  =         10
          NO. OF BETA  ELECTRONS  =         10
          MOLECULAR WEIGHT        =         44.0962         POINT GROUP:  C2v 

          MOLECULAR DIMENSIONS (Angstroms)

            Atom       Atom       Distance
            H    10    H     5     4.33236
            H     7    H    11     2.81279
            H     8    H     6     2.76473


          SCF CALCULATIONS        =          1
 
          WALL-CLOCK TIME         =          0.043 SECONDS
          COMPUTATION TIME        =          0.043 SECONDS




   ATOM   CHEMICAL          X               Y               Z
  NUMBER   SYMBOL      (ANGSTROMS)     (ANGSTROMS)     (ANGSTROMS)
 
     1       C         -2.47938629  *   1.94891579  *   0.11190868  *
     2       C         -1.29827276  *   0.98387702  *   0.00729518  *
     3       C         -3.81010175  *   1.21964142  *  -0.07647847  *
     4       H         -1.38347707  *   0.16741450  *   0.73288952  *
     5       H         -0.34844936  *   1.49531165  *   0.19480817  *
     6       H         -1.23847661  *   0.53154082  *  -0.98851859  *
     7       H         -2.37857497  *   2.75130968  *  -0.64360323  *
     8       H         -2.46534850  *   2.45775798  *   1.09469749  *
     9       H         -3.85388474  *   0.71068126  *  -1.04535583  *
    10       H         -4.65461095  *   1.91488898  *  -0.02947366  *
    11       H         -3.96289721  *   0.46065065  *   0.69868957  *

                             CARTESIAN COORDINATES

   1    C       -2.479386294     1.948915792     0.111908676
   2    C       -1.298272763     0.983877020     0.007295183
   3    C       -3.810101751     1.219641420    -0.076478473
   4    H       -1.383477073     0.167414504     0.732889522
   5    H       -0.348449360     1.495311647     0.194808165
   6    H       -1.238476615     0.531540822    -0.988518590
   7    H       -2.378574965     2.751309683    -0.643603231
   8    H       -2.465348500     2.457757976     1.094697491
   9    H       -3.853884743     0.710681255    -1.045355833
  10    H       -4.654610952     1.914888983    -0.029473663
  11    H       -3.962897209     0.460650646     0.698689570


           Empirical Formula: C3 H8  =    11 atoms



      MOLECULAR POINT GROUP   :   C2v 


          ALPHA EIGENVECTORS  


   Root No.       2         3         4         5         6         7         8         9

                 1 b2      2 a1      1 b1      3 a1      2 b2      1 a2      3 b2      4 a1  

               -23.793   -20.123   -15.812   -15.093   -13.910   -13.154   -12.009   -11.970
  
  S   C    1    0.0000    0.4716    0.0003   -0.0962    0.0000    0.0003   -0.0006   -0.0185
  Px  C    1    0.2924    0.0228   -0.0259    0.0362    0.4296   -0.0036   -0.4588    0.0607
  Py  C    1   -0.0275    0.2592   -0.0893    0.4163   -0.0399   -0.0012    0.0605    0.5067
  Pz  C    1    0.0096    0.0448    0.5236    0.0739    0.0143   -0.0004   -0.0113    0.0861
  S   C    2    0.5106   -0.2644   -0.0001    0.0281   -0.0102    0.0004   -0.0730   -0.0655
  Px  C    2    0.0791   -0.1534   -0.0212    0.4828   -0.0031   -0.0260    0.5203    0.0145
  Py  C    2   -0.0033    0.2321   -0.0697    0.1454    0.5177   -0.0928    0.0095   -0.4454
  Pz  C    2    0.0031    0.0314    0.4116    0.0496    0.0901    0.5364    0.0246   -0.0714
  S   C    3   -0.5106   -0.2646   -0.0005    0.0281    0.0102    0.0001    0.0683   -0.0705
  Px  C    3    0.0784    0.1914   -0.0185   -0.4492   -0.0941    0.0287    0.5027   -0.1273
  Py  C    3   -0.0114    0.1997   -0.0703    0.2338   -0.5082    0.0944   -0.1357   -0.4264
  Pz  C    3    0.0019    0.0430    0.4114    0.0181   -0.0939   -0.5363    0.0013   -0.0785
  S   H    4    0.2362   -0.2118    0.2199   -0.0639   -0.2326    0.3086   -0.0666    0.1919
  S   H    5    0.2770   -0.1388    0.0131    0.3547    0.1780    0.0198    0.3233   -0.2034
  S   H    6    0.2394   -0.2068   -0.2335   -0.0401   -0.2122   -0.3273   -0.0410    0.1647
  S   H    7    0.0001    0.3143   -0.2848    0.1264    0.0001   -0.0008    0.0072    0.2424
  S   H    8   -0.0002    0.3141    0.2843    0.1285    0.0001   -0.0008    0.0095    0.2391
  S   H    9   -0.2371   -0.2106   -0.2230   -0.0594    0.2309    0.3111    0.0729    0.1800
  S   H   10   -0.2771   -0.1386   -0.0088    0.3550   -0.1777    0.0113   -0.3370   -0.1809
  S   H   11   -0.2385   -0.2082    0.2305   -0.0456    0.2139   -0.3256    0.0595    0.1684


   Root No.      10        11        12        13        14        15        16        17

                 2 b1      4 b2      5 a1      3 b1      6 a1      2 a2      5 b2      4 b1  

               -11.388     4.304     4.654     5.509     5.895     5.946     5.983     6.239
  
  S   C    1   -0.0000   -0.0009   -0.3003    0.0000   -0.1679    0.0266   -0.0003    0.0002
  Px  C    1   -0.0250    0.6866    0.0485   -0.0218    0.0115    0.0004   -0.1143   -0.0224
  Py  C    1   -0.0886   -0.0625    0.5776   -0.0732    0.1238   -0.0166    0.0096   -0.0798
  Pz  C    1    0.5349    0.0241    0.1001    0.4349    0.0212   -0.0027    0.0029    0.4697
  S   C    2    0.0000   -0.1529    0.1389    0.0004   -0.0038    0.0007    0.0111   -0.0008
  Px  C    2    0.0143    0.3831   -0.2823   -0.0123   -0.3758    0.0718    0.2491    0.0115
  Py  C    2    0.0541   -0.2597    0.3443   -0.0467   -0.2319    0.1011    0.3800    0.0515
  Pz  C    2   -0.3353   -0.0258    0.0434    0.2905   -0.1213   -0.4315    0.0607   -0.3476
  S   C    3   -0.0005    0.1538    0.1379    0.0009   -0.0038    0.0009   -0.0114   -0.0012
  Px  C    3    0.0143    0.4246    0.3352   -0.0138    0.3250   -0.0726    0.1797    0.0138
  Py  C    3    0.0551    0.1861    0.2845   -0.0497   -0.3157   -0.0232   -0.4195    0.0644
  Pz  C    3   -0.3350    0.0515    0.0638    0.2890    0.0299    0.4454   -0.0613   -0.3448
  S   H    4   -0.2231   -0.0265    0.1337   -0.2649   -0.1325    0.3904    0.2602    0.2515
  S   H    5   -0.0159   -0.1431   -0.0714   -0.0196    0.4604   -0.0349   -0.4181    0.0253
  S   H    6    0.2388   -0.0343    0.1203    0.2835   -0.2008   -0.3756    0.1959   -0.2755
  S   H    7   -0.3598   -0.0002   -0.1631    0.4067    0.0515   -0.0092    0.0045    0.3513
  S   H    8    0.3617   -0.0009   -0.1632   -0.4071    0.0512   -0.0095   -0.0041   -0.3510
  S   H    9    0.2281    0.0290    0.1296    0.2688   -0.1178    0.4040   -0.2384   -0.2556
  S   H   10    0.0073    0.1428   -0.0723    0.0088    0.4550   -0.0605    0.4220   -0.0141
  S   H   11   -0.2343    0.0332    0.1236   -0.2788   -0.2097   -0.3626   -0.2206    0.2717


           BETA EIGENVECTORS  


   Root No.       2         3         4         5         6         7         8         9

                 1 b2      2 a1      1 b1      3 a1      2 b2      1 a2      3 b2      4 a1  

               -23.793   -20.123   -15.812   -15.093   -13.910   -13.154   -12.009   -11.970
  
  S   C    1    0.0000    0.4716    0.0003   -0.0962    0.0000    0.0003   -0.0006   -0.0185
  Px  C    1    0.2924    0.0228   -0.0259    0.0362    0.4296   -0.0036   -0.4588    0.0609
  Py  C    1   -0.0275    0.2592   -0.0893    0.4163   -0.0399   -0.0012    0.0607    0.5066
  Pz  C    1    0.0096    0.0448    0.5236    0.0739    0.0143   -0.0004   -0.0112    0.0861
  S   C    2    0.5106   -0.2644   -0.0001    0.0281   -0.0102    0.0004   -0.0730   -0.0655
  Px  C    2    0.0791   -0.1534   -0.0212    0.4828   -0.0031   -0.0260    0.5203    0.0143
  Py  C    2   -0.0033    0.2321   -0.0697    0.1454    0.5177   -0.0928    0.0093   -0.4455
  Pz  C    2    0.0031    0.0314    0.4116    0.0496    0.0901    0.5364    0.0246   -0.0714
  S   C    3   -0.5106   -0.2646   -0.0005    0.0281    0.0102    0.0001    0.0682   -0.0705
  Px  C    3    0.0784    0.1914   -0.0185   -0.4492   -0.0941    0.0287    0.5027   -0.1275
  Py  C    3   -0.0114    0.1997   -0.0703    0.2338   -0.5081    0.0944   -0.1358   -0.4263
  Pz  C    3    0.0019    0.0430    0.4114    0.0181   -0.0939   -0.5363    0.0013   -0.0785
  S   H    4    0.2362   -0.2118    0.2199   -0.0639   -0.2326    0.3086   -0.0665    0.1919
  S   H    5    0.2770   -0.1388    0.0131    0.3547    0.1780    0.0198    0.3232   -0.2035
  S   H    6    0.2394   -0.2068   -0.2335   -0.0401   -0.2122   -0.3273   -0.0410    0.1647
  S   H    7    0.0001    0.3143   -0.2848    0.1264    0.0001   -0.0008    0.0073    0.2424
  S   H    8   -0.0002    0.3141    0.2843    0.1285    0.0001   -0.0008    0.0096    0.2390
  S   H    9   -0.2371   -0.2106   -0.2230   -0.0594    0.2309    0.3111    0.0730    0.1800
  S   H   10   -0.2771   -0.1386   -0.0088    0.3550   -0.1777    0.0113   -0.3371   -0.1808
  S   H   11   -0.2385   -0.2082    0.2305   -0.0456    0.2139   -0.3256    0.0596    0.1684


   Root No.      10        11        12        13        14        15        16        17

                 2 b1      4 b2      5 a1      3 b1      6 a1      2 a2      5 b2      4 b1  

               -11.388     4.304     4.654     5.509     5.895     5.946     5.983     6.239
  
  S   C    1   -0.0000   -0.0009   -0.3003    0.0000   -0.1679    0.0266   -0.0003    0.0002
  Px  C    1   -0.0250    0.6866    0.0485   -0.0219    0.0114    0.0005   -0.1143   -0.0224
  Py  C    1   -0.0886   -0.0626    0.5776   -0.0732    0.1238   -0.0166    0.0096   -0.0798
  Pz  C    1    0.5349    0.0241    0.1001    0.4349    0.0212   -0.0027    0.0029    0.4697
  S   C    2    0.0000   -0.1529    0.1389    0.0004   -0.0038    0.0007    0.0111   -0.0008
  Px  C    2    0.0143    0.3831   -0.2823   -0.0123   -0.3757    0.0717    0.2492    0.0115
  Py  C    2    0.0541   -0.2597    0.3443   -0.0467   -0.2318    0.1010    0.3801    0.0515
  Pz  C    2   -0.3353   -0.0258    0.0434    0.2905   -0.1213   -0.4315    0.0607   -0.3476
  S   C    3   -0.0005    0.1538    0.1379    0.0009   -0.0038    0.0009   -0.0114   -0.0012
  Px  C    3    0.0143    0.4246    0.3353   -0.0138    0.3251   -0.0727    0.1796    0.0138
  Py  C    3    0.0551    0.1861    0.2845   -0.0497   -0.3158   -0.0231   -0.4194    0.0644
  Pz  C    3   -0.3350    0.0515    0.0638    0.2891    0.0299    0.4454   -0.0612   -0.3448
  S   H    4   -0.2231   -0.0265    0.1336   -0.2648   -0.1325    0.3904    0.2603    0.2515
  S   H    5   -0.0159   -0.1431   -0.0714   -0.0195    0.4603   -0.0348   -0.4182    0.0253
  S   H    6    0.2387   -0.0343    0.1203    0.2835   -0.2007   -0.3757    0.1958   -0.2755
  S   H    7   -0.3598   -0.0002   -0.1631    0.4067    0.0515   -0.0093    0.0045    0.3513
  S   H    8    0.3617   -0.0009   -0.1632   -0.4071    0.0512   -0.0094   -0.0041   -0.3510
  S   H    9    0.2281    0.0290    0.1296    0.2688   -0.1179    0.4040   -0.2383   -0.2555
  S   H   10    0.0073    0.1428   -0.0723    0.0088    0.4551   -0.0606    0.4219   -0.0141
  S   H   11   -0.2343    0.0332    0.1236   -0.2789   -0.2097   -0.3626   -0.2207    0.2717


              NET ATOMIC CHARGES AND DIPOLE CONTRIBUTIONS

  ATOM NO.   TYPE          CHARGE      No. of ELECS.   s-Pop       p-Pop       
    1          C          -0.229491        4.2295     1.05072     3.17877
    2          C          -0.438876        4.4389     1.05203     3.38684
    3          C          -0.438890        4.4389     1.05207     3.38682
    4          H           0.142497        0.8575     0.85750
    5          H           0.138591        0.8614     0.86141
    6          H           0.141916        0.8581     0.85808
    7          H           0.130645        0.8694     0.86935
    8          H           0.130635        0.8694     0.86937
    9          H           0.142368        0.8576     0.85763
   10          H           0.138596        0.8614     0.86140
   11          H           0.142009        0.8580     0.85799
 DIPOLE           X         Y         Z       TOTAL
 POINT-CHG.     0.002     0.022     0.005     0.023
 HYBRID        -0.007    -0.078    -0.014     0.079
 SUM           -0.005    -0.055    -0.009     0.056


          ATOMIC ORBITAL ELECTRON POPULATIONS

     Atom    s        px        py        pz   
    1  C   1.05072   0.97480   1.05225   1.15173
    2  C   1.05203   1.09018   1.12294   1.17372
    3  C   1.05207   1.07082   1.14325   1.17275
    4  H   0.85750
    5  H   0.86141
    6  H   0.85808
    7  H   0.86935
    8  H   0.86937
    9  H   0.85763
   10  H   0.86140
   11  H   0.85799


                    (SZ)    =    0.000000
                    (S**2)  =    0.000000


          ATOMIC ORBITAL SPIN POPULATIONS

    Atom   Total    s     px     py     pz   
         Atomic
    1  C  0.0000  0.000 -0.000  0.000 -0.000
    2  C -0.0001 -0.000 -0.000 -0.000 -0.000
    3  C  0.0001  0.000 -0.000  0.000  0.000
    4  H  0.0000  0.000
    5  H  0.0000  0.000
    6  H  0.0000  0.000
    7  H -0.0000 -0.000
    8  H  0.0000  0.000
    9  H -0.0000 -0.000
   10  H -0.0000 -0.000
   11  H -0.0000 -0.000
 *******************************************************************************
 ** Cite this program as: MOPAC2016, Version: 21.298M, James J. P. Stewart,   **
 **                           web-site: HTTP://OpenMOPAC.net.                 **
 *******************************************************************************
 **                                                                           **
 **                                MOPAC2016                                  **
 **                                                                           **
 *******************************************************************************

                              PM7 CALCULATION RESULTS

 *******************************************************************************
 *  CALCULATION DONE:                                Fri Oct 29 13:45:56 2021  *
 *  T=         - A TIME OF 172800.0 SECONDS REQUESTED
 *  DUMP=N     - RESTART FILE WRITTEN EVERY 7200.0 SECONDS REQUESTED
 *  VECTORS    - FINAL EIGENVECTORS TO BE PRINTED
 *******************************************************************************
VECTORS=(5)
 Propane

   ATOM   CHEMICAL          X               Y               Z
  NUMBER   SYMBOL      (ANGSTROMS)     (ANGSTROMS)     (ANGSTROMS)
 
     1       C         -2.47938629  *   1.94891579  *   0.11190868  *
     2       C         -1.29827276  *   0.98387702  *   0.00729518  *
     3       C         -3.81010175  *   1.21964142  *  -0.07647847  *
     4       H         -1.38347707  *   0.16741450  *   0.73288952  *
     5       H         -0.34844936  *   1.49531165  *   0.19480817  *
     6       H         -1.23847661  *   0.53154082  *  -0.98851859  *
     7       H         -2.37857497  *   2.75130968  *  -0.64360323  *
     8       H         -2.46534850  *   2.45775798  *   1.09469749  *
     9       H         -3.85388474  *   0.71068126  *  -1.04535583  *
    10       H         -4.65461095  *   1.91488898  *  -0.02947366  *
    11       H         -3.96289721  *   0.46065065  *   0.69868957  *
 


          CARTESIAN COORDINATES 

    NO.       ATOM           X           Y           Z

     1         C         -2.4794      1.9489      0.1119
     2         C         -1.2983      0.9839      0.0073
     3         C         -3.8101      1.2196     -0.0765
     4         H         -1.3835      0.1674      0.7329
     5         H         -0.3484      1.4953      0.1948
     6         H         -1.2385      0.5315     -0.9885
     7         H         -2.3786      2.7513     -0.6436
     8         H         -2.4653      2.4578      1.0947
     9         H         -3.8539      0.7107     -1.0454
    10         H         -4.6546      1.9149     -0.0295
    11         H         -3.9629      0.4607      0.6987

 General Reference for PM7:
 "Optimization of Parameters for Semiempirical Methods VI: More Modifications to the 
 NDDO Approximations and Re-optimization of Parameters", J. J. P. Stewart, J. Mol. Mod., 1:32, 19 (2013)
 https://link.springer.com/article/10.1007/s00894-012-1667-x

           Empirical Formula: C3 H8  =    11 atoms



      MOLECULAR POINT GROUP   :   C2v 


      RHF CALCULATION, NO. OF DOUBLY OCCUPIED LEVELS = 10


          Geometry optimization using EF

     GRADIENT =  0.80919 IS LESS THAN CUTOFF =  1.00000



 -------------------------------------------------------------------------------
 VECTORS=(5)
 Propane



     GRADIENTS WERE INITIALLY ACCEPTABLY SMALL                
     SCF FIELD WAS ACHIEVED                                   


                              PM7 CALCULATION
                                                       MOPAC2016 (Version: 21.298M)
                                                       Fri Oct 29 13:45:56 2021




          FINAL HEAT OF FORMATION =        -23.07796 KCAL/MOL =     -96.55818 KJ/MOL


          COSMO AREA              =         96.08 SQUARE ANGSTROMS
          COSMO VOLUME            =         78.97 CUBIC ANGSTROMS

          GRADIENT NORM           =          0.80919          =       0.24398 PER ATOM
          IONIZATION POTENTIAL    =         11.388121 EV
          HOMO LUMO ENERGIES (EV) =        -11.388  4.304
          NO. OF FILLED LEVELS    =         10
          MOLECULAR WEIGHT        =         44.0962         POINT GROUP:  C2v 

          MOLECULAR DIMENSIONS (Angstroms)

            Atom       Atom       Distance
            H    10    H     5     4.33236
            H     7    H    11     2.81279
            H     8    H     6     2.76473


          SCF CALCULATIONS        =          1
 
          WALL-CLOCK TIME         =          0.055 SECONDS
          COMPUTATION TIME        =          0.054 SECONDS




   ATOM   CHEMICAL          X               Y               Z
  NUMBER   SYMBOL      (ANGSTROMS)     (ANGSTROMS)     (ANGSTROMS)
 
     1       C         -2.47938629  *   1.94891579  *   0.11190868  *
     2       C         -1.29827276  *   0.98387702  *   0.00729518  *
     3       C         -3.81010175  *   1.21964142  *  -0.07647847  *
     4       H         -1.38347707  *   0.16741450  *   0.73288952  *
     5       H         -0.34844936  *   1.49531165  *   0.19480817  *
     6       H         -1.23847661  *   0.53154082  *  -0.98851859  *
     7       H         -2.37857497  *   2.75130968  *  -0.64360323  *
     8       H         -2.46534850  *   2.45775798  *   1.09469749  *
     9       H         -3.85388474  *   0.71068126  *  -1.04535583  *
    10       H         -4.65461095  *   1.91488898  *  -0.02947366  *
    11       H         -3.96289721  *   0.46065065  *   0.69868957  *

                             CARTESIAN COORDINATES

   1    C       -2.479386294     1.948915792     0.111908676
   2    C       -1.298272763     0.983877020     0.007295183
   3    C       -3.810101751     1.219641420    -0.076478473
   4    H       -1.383477073     0.167414504     0.732889522
   5    H       -0.348449360     1.495311647     0.194808165
   6    H       -1.238476615     0.531540822    -0.988518590
   7    H       -2.378574965     2.751309683    -0.643603231
   8    H       -2.465348500     2.457757976     1.094697491
   9    H       -3.853884743     0.710681255    -1.045355833
  10    H       -4.654610952     1.914888983    -0.029473663
  11    H       -3.962897209     0.460650646     0.698689570


           Empirical Formula: C3 H8  =    11 atoms



      MOLECULAR POINT GROUP   :   C2v 


                EIGENVECTORS  


   Root No.       8         9        10        11        12

                 3 b2      4 a1      2 b1      4 b2      5 a1  

               -12.009   -11.970   -11.388     4.304     4.654
  
  S   C    1   -0.0006   -0.0185   -0.0000   -0.0009   -0.3003
  Px  C    1   -0.4588    0.0608   -0.0250    0.6866    0.0485
  Py  C    1    0.0606    0.5066   -0.0886   -0.0626    0.5776
  Pz  C    1   -0.0113    0.0861    0.5349    0.0241    0.1001
  S   C    2   -0.0730   -0.0655    0.0000   -0.1529    0.1389
  Px  C    2    0.5203    0.0145    0.0143    0.3831   -0.2823
  Py  C    2    0.0094   -0.4455    0.0541   -0.2597    0.3443
  Pz  C    2    0.0246   -0.0714   -0.3353   -0.0258    0.0434
  S   C    3    0.0682   -0.0705   -0.0005    0.1538    0.1379
  Px  C    3    0.5027   -0.1274    0.0143    0.4246    0.3353
  Py  C    3   -0.1357   -0.4264    0.0551    0.1861    0.2845
  Pz  C    3    0.0013   -0.0785   -0.3350    0.0515    0.0638
  S   H    4   -0.0665    0.1919   -0.2231   -0.0265    0.1337
  S   H    5    0.3232   -0.2034   -0.0159   -0.1431   -0.0714
  S   H    6   -0.0410    0.1647    0.2387   -0.0343    0.1203
  S   H    7    0.0072    0.2424   -0.3598   -0.0002   -0.1631
  S   H    8    0.0095    0.2391    0.3617   -0.0009   -0.1632
  S   H    9    0.0729    0.1800    0.2281    0.0290    0.1296
  S   H   10   -0.3370   -0.1809    0.0073    0.1428   -0.0723
  S   H   11    0.0595    0.1684   -0.2343    0.0332    0.1236


              NET ATOMIC CHARGES AND DIPOLE CONTRIBUTIONS

  ATOM NO.   TYPE          CHARGE      No. of ELECS.   s-Pop       p-Pop       
    1          C          -0.229492        4.2295     1.05073     3.17876
    2          C          -0.438891        4.4389     1.05203     3.38686
    3          C          -0.438886        4.4389     1.05208     3.38680
    4          H           0.142498        0.8575     0.85750
    5          H           0.138604        0.8614     0.86140
    6          H           0.141915        0.8581     0.85809
    7          H           0.130650        0.8694     0.86935
    8          H           0.130628        0.8694     0.86937
    9          H           0.142368        0.8576     0.85763
   10          H           0.138594        0.8614     0.86141
   11          H           0.142012        0.8580     0.85799
 DIPOLE           X         Y         Z       TOTAL
 POINT-CHG.     0.002     0.023     0.005     0.023
 HYBRID        -0.007    -0.078    -0.014     0.079
 SUM           -0.005    -0.055    -0.009     0.056


          ATOMIC ORBITAL ELECTRON POPULATIONS

     Atom    s        px        py        pz   
    1  C   1.05073   0.97480   1.05223   1.15173
    2  C   1.05203   1.09019   1.12293   1.17373
    3  C   1.05208   1.07082   1.14323   1.17275
    4  H   0.85750
    5  H   0.86140
    6  H   0.85809
    7  H   0.86935
    8  H   0.86937
    9  H   0.85763
   10  H   0.86141
   11  H   0.85799
 *******************************************************************************
 ** Cite this program as: MOPAC2016, Version: 21.298M, James J. P. Stewart,   **
 **                           web-site: HTTP://OpenMOPAC.net.                 **
 *******************************************************************************
 **                                                                           **
 **                                MOPAC2016                                  **
 **                                                                           **
 *******************************************************************************

                              PM7 CALCULATION RESULTS

 *******************************************************************************
 *  CALCULATION DONE:                                Fri Oct 29 13:45:56 2021  *
 *  T=         - A TIME OF 172800.0 SECONDS REQUESTED
 *  DUMP=N     - RESTART FILE WRITTEN EVERY 7200.0 SECONDS REQUESTED
 *  VECTORS    - FINAL EIGENVECTORS TO BE PRINTED
 *******************************************************************************
VECTORS=(3,2)
 Propane

   ATOM   CHEMICAL          X               Y               Z
  NUMBER   SYMBOL      (ANGSTROMS)     (ANGSTROMS)     (ANGSTROMS)
 
     1       C         -2.47938629  *   1.94891579  *   0.11190868  *
     2       C         -1.29827276  *   0.98387702  *   0.00729518  *
     3       C         -3.81010175  *   1.21964142  *  -0.07647847  *
     4       H         -1.38347707  *   0.16741450  *   0.73288952  *
     5       H         -0.34844936  *   1.49531165  *   0.19480817  *
     6       H         -1.23847661  *   0.53154082  *  -0.98851859  *
     7       H         -2.37857497  *   2.75130968  *  -0.64360323  *
     8       H         -2.46534850  *   2.45775798  *   1.09469749  *
     9       H         -3.85388474  *   0.71068126  *  -1.04535583  *
    10       H         -4.65461095  *   1.91488898  *  -0.02947366  *
    11       H         -3.96289721  *   0.46065065  *   0.69868957  *
 


          CARTESIAN COORDINATES 

    NO.       ATOM           X           Y           Z

     1         C         -2.4794      1.9489      0.1119
     2         C         -1.2983      0.9839      0.0073
     3         C         -3.8101      1.2196     -0.0765
     4         H         -1.3835      0.1674      0.7329
     5         H         -0.3484      1.4953      0.1948
     6         H         -1.2385      0.5315     -0.9885
     7         H         -2.3786      2.7513     -0.6436
     8         H         -2.4653      2.4578      1.0947
     9         H         -3.8539      0.7107     -1.0454
    10         H         -4.6546      1.9149     -0.0295
    11         H         -3.9629      0.4607      0.6987

 General Reference for PM7:
 "Optimization of Parameters for Semiempirical Methods VI: More Modifications to the 
 NDDO Approximations and Re-optimization of Parameters", J. J. P. Stewart, J. Mol. Mod., 1:32, 19 (2013)
 https://link.springer.com/article/10.1007/s00894-012-1667-x

           Empirical Formula: C3 H8  =    11 atoms



      MOLECULAR POINT GROUP   :   C2v 


      RHF CALCULATION, NO. OF DOUBLY OCCUPIED LEVELS = 10


          Geometry optimization using EF

     GRADIENT =  0.80919 IS LESS THAN CUTOFF =  1.00000



 -------------------------------------------------------------------------------
 VECTORS=(3,2)
 Propane



     GRADIENTS WERE INITIALLY ACCEPTABLY SMALL                
     SCF FIELD WAS ACHIEVED                                   


                              PM7 CALCULATION
                                                       MOPAC2016 (Version: 21.298M)
                                                       Fri Oct 29 13:45:56 2021




          FINAL HEAT OF FORMATION =        -23.07796 KCAL/MOL =     -96.55818 KJ/MOL


          COSMO AREA              =         96.08 SQUARE ANGSTROMS
          COSMO VOLUME            =         78.97 CUBIC ANGSTROMS

          GRADIENT NORM           =          0.80919          =       0.24398 PER ATOM
          IONIZATION POTENTIAL    =         11.388121 EV
          HOMO LUMO ENERGIES (EV) =        -11.388  4.304
          NO. OF FILLED LEVELS    =         10
          MOLECULAR WEIGHT        =         44.0962         POINT GROUP:  C2v 

          MOLECULAR DIMENSIONS (Angstroms)

            Atom       Atom       Distance
            H    10    H     5     4.33236
            H     7    H    11     2.81279
            H     8    H     6     2.76473


          SCF CALCULATIONS        =          1
 
          WALL-CLOCK TIME         =          0.062 SECONDS
          COMPUTATION TIME        =          0.063 SECONDS




   ATOM   CHEMICAL          X               Y               Z
  NUMBER   SYMBOL      (ANGSTROMS)     (ANGSTROMS)     (ANGSTROMS)
 
     1       C         -2.47938629  *   1.94891579  *   0.11190868  *
     2       C         -1.29827276  *   0.98387702  *   0.00729518  *
     3       C         -3.81010175  *   1.21964142  *  -0.07647847  *
     4       H         -1.38347707  *   0.16741450  *   0.73288952  *
     5       H         -0.34844936  *   1.49531165  *   0.19480817  *
     6       H         -1.23847661  *   0.53154082  *  -0.98851859  *
     7       H         -2.37857497  *   2.75130968  *  -0.64360323  *
     8       H         -2.46534850  *   2.45775798  *   1.09469749  *
     9       H         -3.85388474  *   0.71068126  *  -1.04535583  *
    10       H         -4.65461095  *   1.91488898  *  -0.02947366  *
    11       H         -3.96289721  *   0.46065065  *   0.69868957  *

                             CARTESIAN COORDINATES

   1    C       -2.479386294     1.948915792     0.111908676
   2    C       -1.298272763     0.983877020     0.007295183
   3    C       -3.810101751     1.219641420    -0.076478473
   4    H       -1.383477073     0.167414504     0.732889522
   5    H       -0.348449360     1.495311647     0.194808165
   6    H       -1.238476615     0.531540822    -0.988518590
   7    H       -2.378574965     2.751309683    -0.643603231
   8    H       -2.465348500     2.457757976     1.094697491
   9    H       -3.853884743     0.710681255    -1.045355833
  10    H       -4.654610952     1.914888983    -0.029473663
  11    H       -3.962897209     0.460650646     0.698689570


           Empirical Formula: C3 H8  =    11 atoms



      MOLECULAR POINT GROUP   :   C2v 


                EIGENVECTORS  


   Root No.       8         9        10        11        12

                 3 b2      4 a1      2 b1      4 b2      5 a1  

               -12.009   -11.970   -11.388     4.304     4.654
  
  S   C    1   -0.0006   -0.0185   -0.0000   -0.0009   -0.3003
  Px  C    1   -0.4588    0.0608   -0.0250    0.6866    0.0485
  Py  C    1    0.0606    0.5066   -0.0886   -0.0626    0.5776
  Pz  C    1   -0.0113    0.0861    0.5349    0.0241    0.1001
  S   C    2   -0.0730   -0.0655    0.0000   -0.1529    0.1389
  Px  C    2    0.5203    0.0145    0.0143    0.3831   -0.2823
  Py  C    2    0.0094   -0.4455    0.0541   -0.2597    0.3443
  Pz  C    2    0.0246   -0.0714   -0.3353   -0.0258    0.0434
  S   C    3    0.0682   -0.0705   -0.0005    0.1538    0.1379
  Px  C    3    0.5027   -0.1274    0.0143    0.4246    0.3353
  Py  C    3   -0.1357   -0.4264    0.0551    0.1861    0.2845
  Pz  C    3    0.0013   -0.0785   -0.3350    0.0515    0.0638
  S   H    4   -0.0665    0.1919   -0.2231   -0.0265    0.1337
  S   H    5    0.3232   -0.2034   -0.0159   -0.1431   -0.0714
  S   H    6   -0.0410    0.1647    0.2387   -0.0343    0.1203
  S   H    7    0.0072    0.2424   -0.3598   -0.0002   -0.1631
  S   H    8    0.0095    0.2391    0.3617   -0.0009   -0.1632
  S   H    9    0.0729    0.1800    0.2281    0.0290    0.1296
  S   H   10   -0.3370   -0.1809    0.0073    0.1428   -0.0723
  S   H   11    0.0595    0.1684   -0.2343    0.0332    0.1236


              NET ATOMIC CHARGES AND DIPOLE CONTRIBUTIONS

  ATOM NO.   TYPE          CHARGE      No. of ELECS.   s-Pop       p-Pop       
    1          C          -0.229492        4.2295     1.05073     3.17876
    2          C          -0.438891        4.4389     1.05203     3.38686
    3          C          -0.438886        4.4389     1.05208     3.38680
    4          H           0.142498        0.8575     0.85750
    5          H           0.138604        0.8614     0.86140
    6          H           0.141915        0.8581     0.85809
    7          H           0.130650        0.8694     0.86935
    8          H           0.130628        0.8694     0.86937
    9          H           0.142368        0.8576     0.85763
   10          H           0.138594        0.8614     0.86141
   11          H           0.142012        0.8580     0.85799
 DIPOLE           X         Y         Z       TOTAL
 POINT-CHG.     0.002     0.023     0.005     0.023
 HYBRID        -0.007    -0.078    -0.014     0.079
 SUM           -0.005    -0.055    -0.009     0.056


          ATOMIC ORBITAL ELECTRON POPULATIONS

     Atom    s        px        py        pz   
    1  C   1.05073   0.97480   1.05223   1.15173
    2  C   1.05203   1.09019   1.12293   1.17373
    3  C   1.05208   1.07082   1.14323   1.17275
    4  H   0.85750
    5  H   0.86140
    6  H   0.85809
    7  H   0.86935
    8  H   0.86937
    9  H   0.85763
   10  H   0.86141
   11  H   0.85799
 *******************************************************************************
 ** Cite this program as: MOPAC2016, Version: 21.298M, James J. P. Stewart,   **
 **                           web-site: HTTP://OpenMOPAC.net.                 **
 *******************************************************************************
 **                                                                           **
 **                                MOPAC2016                                  **
 **                                                                           **
 *******************************************************************************

                              PM7 CALCULATION RESULTS

 *******************************************************************************
 *  CALCULATION DONE:                                Fri Oct 29 13:45:56 2021  *
 *  MOZYME     - USE LOCALIZED M.O.s IN SOLVING THE SCF EQUATIONS
 *  T=         - A TIME OF 172800.0 SECONDS REQUESTED
 *  DUMP=N     - RESTART FILE WRITTEN EVERY 7200.0 SECONDS REQUESTED
 *******************************************************************************
MOZYME
 Propane

   ATOM   CHEMICAL          X               Y               Z
  NUMBER   SYMBOL      (ANGSTROMS)     (ANGSTROMS)     (ANGSTROMS)
 
     1       C         -2.47938629  *   1.94891579  *   0.11190868  *
     2       C         -1.29827276  *   0.98387702  *   0.00729518  *
     3       C         -3.81010175  *   1.21964142  *  -0.07647847  *
     4       H         -1.38347707  *   0.16741450  *   0.73288952  *
     5       H         -0.34844936  *   1.49531165  *   0.19480817  *
     6       H         -1.23847661  *   0.53154082  *  -0.98851859  *
     7       H         -2.37857497  *   2.75130968  *  -0.64360323  *
     8       H         -2.46534850  *   2.45775798  *   1.09469749  *
     9       H         -3.85388474  *   0.71068126  *  -1.04535583  *
    10       H         -4.65461095  *   1.91488898  *  -0.02947366  *
    11       H         -3.96289721  *   0.46065065  *   0.69868957  *
 


          CARTESIAN COORDINATES 

    NO.       ATOM           X           Y           Z

     1         C         -2.4794      1.9489      0.1119
     2         C         -1.2983      0.9839      0.0073
     3         C         -3.8101      1.2196     -0.0765
     4         H         -1.3835      0.1674      0.7329
     5         H         -0.3484      1.4953      0.1948
     6         H         -1.2385      0.5315     -0.9885
     7         H         -2.3786      2.7513     -0.6436
     8         H         -2.4653      2.4578      1.0947
     9         H         -3.8539      0.7107     -1.0454
    10         H         -4.6546      1.9149     -0.0295
    11         H         -3.9629      0.4607      0.6987

 General Reference for PM7:
 "Optimization of Parameters for Semiempirical Methods VI: More Modifications to the 
 NDDO Approximations and Re-optimization of Parameters", J. J. P. Stewart, J. Mol. Mod., 1:32, 19 (2013)
 https://link.springer.com/article/10.1007/s00894-012-1667-x

           Empirical Formula: C3 H8  =    11 atoms



      MOLECULAR POINT GROUP   :   C2v 

          NO CHARGES FOUND.

          COMPUTED CHARGE ON SYSTEM: +0

          Geometry optimization using EF

     GRADIENT =  0.83836 IS LESS THAN CUTOFF =  1.00000



 -------------------------------------------------------------------------------
 MOZYME
 Propane



     GRADIENTS WERE INITIALLY ACCEPTABLY SMALL                
     SCF FIELD WAS ACHIEVED                                   


                              PM7 CALCULATION
                                                       MOPAC2016 (Version: 21.298M)
                                                       Fri Oct 29 13:45:56 2021




          FINAL HEAT OF FORMATION =        -23.07582 KCAL/MOL =     -96.54924 KJ/MOL



          GRADIENT NORM           =          0.83836          =       0.25278 PER ATOM
          NO. OF FILLED LEVELS    =         10
          MOLECULAR WEIGHT        =         44.0962         POINT GROUP:  C2v 

          MOLECULAR DIMENSIONS (Angstroms)

            Atom       Atom       Distance
            H    10    H     5     4.33236
            H     7    H    11     2.81279
            H     8    H     6     2.76473


          SCF CALCULATIONS        =          1
 
          WALL-CLOCK TIME         =          0.074 SECONDS
          COMPUTATION TIME        =          0.073 SECONDS




   ATOM   CHEMICAL          X               Y               Z
  NUMBER   SYMBOL      (ANGSTROMS)     (ANGSTROMS)     (ANGSTROMS)
 
     1       C         -2.47938629  *   1.94891579  *   0.11190868  *
     2       C         -1.29827276  *   0.98387702  *   0.00729518  *
     3       C         -3.81010175  *   1.21964142  *  -0.07647847  *
     4       H         -1.38347707  *   0.16741450  *   0.73288952  *
     5       H         -0.34844936  *   1.49531165  *   0.19480817  *
     6       H         -1.23847661  *   0.53154082  *  -0.98851859  *
     7       H         -2.37857497  *   2.75130968  *  -0.64360323  *
     8       H         -2.46534850  *   2.45775798  *   1.09469749  *
     9       H         -3.85388474  *   0.71068126  *  -1.04535583  *
    10       H         -4.65461095  *   1.91488898  *  -0.02947366  *
    11       H         -3.96289721  *   0.46065065  *   0.69868957  *

                             CARTESIAN COORDINATES

   1    C       -2.479386294     1.948915792     0.111908676
   2    C       -1.298272763     0.983877020     0.007295183
   3    C       -3.810101751     1.219641420    -0.076478473
   4    H       -1.383477073     0.167414504     0.732889522
   5    H       -0.348449360     1.495311647     0.194808165
   6    H       -1.238476615     0.531540822    -0.988518590
   7    H       -2.378574965     2.751309683    -0.643603231
   8    H       -2.465348500     2.457757976     1.094697491
   9    H       -3.853884743     0.710681255    -1.045355833
  10    H       -4.654610952     1.914888983    -0.029473663
  11    H       -3.962897209     0.460650646     0.698689570


           Empirical Formula: C3 H8  =    11 atoms



              NET ATOMIC CHARGES AND DIPOLE CONTRIBUTIONS

  ATOM NO.   TYPE          CHARGE      No. of ELECS.   s-Pop       p-Pop       
    1          C          -0.236353        4.2364     1.05013     3.18622
    2          C          -0.436759        4.4368     1.05190     3.38485
    3          C          -0.436757        4.4368     1.05195     3.38480
    4          H           0.142331        0.8577     0.85767
    5          H           0.138392        0.8616     0.86161
    6          H           0.141754        0.8582     0.85825
    7          H           0.132487        0.8675     0.86751
    8          H           0.132471        0.8675     0.86753
    9          H           0.142200        0.8578     0.85780
   10          H           0.138381        0.8616     0.86162
   11          H           0.141854        0.8581     0.85815
 DIPOLE           X         Y         Z       TOTAL
 POINT-CHG.     0.002     0.022     0.005     0.023
 HYBRID        -0.007    -0.075    -0.013     0.077
 SUM           -0.005    -0.053    -0.008     0.054


          ATOMIC ORBITAL ELECTRON POPULATIONS

     Atom    s        px        py        pz   
    1  C   1.05013   0.97730   1.05460   1.15432
    2  C   1.05190   1.08911   1.12228   1.17346
    3  C   1.05195   1.06958   1.14275   1.17247
    4  H   0.85767
    5  H   0.86161
    6  H   0.85825
    7  H   0.86751
    8  H   0.86753
    9  H   0.85780
   10  H   0.86162
   11  H   0.85815
 *******************************************************************************
 ** Cite this program as: MOPAC2016, Version: 21.298M, James J. P. Stewart,   **
 **                           web-site: HTTP://OpenMOPAC.net.                 **
 *******************************************************************************
 **                                                                           **
 **                                MOPAC2016                                  **
 **                                                                           **
 *******************************************************************************

                              PM7 CALCULATION RESULTS

 *******************************************************************************
 *  CALCULATION DONE:                                Fri Oct 29 13:45:56 2021  *
 *  MOZYME     - USE LOCALIZED M.O.s IN SOLVING THE SCF EQUATIONS
 *  T=         - A TIME OF 172800.0 SECONDS REQUESTED
 *  DUMP=N     - RESTART FILE WRITTEN EVERY 7200.0 SECONDS REQUESTED
 *  VECTORS    - FINAL MOLECULAR ORBITALS TO BE PRINTED
 *******************************************************************************
VECTORS MOZYME
 Propane

   ATOM   CHEMICAL          X               Y               Z
  NUMBER   SYMBOL      (ANGSTROMS)     (ANGSTROMS)     (ANGSTROMS)
 
     1       C         -2.47938629  *   1.94891579  *   0.11190868  *
     2       C         -1.29827276  *   0.98387702  *   0.00729518  *
     3       C         -3.81010175  *   1.21964142  *  -0.07647847  *
     4       H         -1.38347707  *   0.16741450  *   0.73288952  *
     5       H         -0.34844936  *   1.49531165  *   0.19480817  *
     6       H         -1.23847661  *   0.53154082  *  -0.98851859  *
     7       H         -2.37857497  *   2.75130968  *  -0.64360323  *
     8       H         -2.46534850  *   2.45775798  *   1.09469749  *
     9       H         -3.85388474  *   0.71068126  *  -1.04535583  *
    10       H         -4.65461095  *   1.91488898  *  -0.02947366  *
    11       H         -3.96289721  *   0.46065065  *   0.69868957  *
 


          CARTESIAN COORDINATES 

    NO.       ATOM           X           Y           Z

     1         C         -2.4794      1.9489      0.1119
     2         C         -1.2983      0.9839      0.0073
     3         C         -3.8101      1.2196     -0.0765
     4         H         -1.3835      0.1674      0.7329
     5         H         -0.3484      1.4953      0.1948
     6         H         -1.2385      0.5315     -0.9885
     7         H         -2.3786      2.7513     -0.6436
     8         H         -2.4653      2.4578      1.0947
     9         H         -3.8539      0.7107     -1.0454
    10         H         -4.6546      1.9149     -0.0295
    11         H         -3.9629      0.4607      0.6987

 General Reference for PM7:
 "Optimization of Parameters for Semiempirical Methods VI: More Modifications to the 
 NDDO Approximations and Re-optimization of Parameters", J. J. P. Stewart, J. Mol. Mod., 1:32, 19 (2013)
 https://link.springer.com/article/10.1007/s00894-012-1667-x

           Empirical Formula: C3 H8  =    11 atoms



      MOLECULAR POINT GROUP   :   C2v 

          NO CHARGES FOUND.

          COMPUTED CHARGE ON SYSTEM: +0

          Geometry optimization using EF

     GRADIENT =  0.83836 IS LESS THAN CUTOFF =  1.00000



 -------------------------------------------------------------------------------
 VECTORS MOZYME
 Propane



     GRADIENTS WERE INITIALLY ACCEPTABLY SMALL                
     SCF FIELD WAS ACHIEVED                                   


                              PM7 CALCULATION
                                                       MOPAC2016 (Version: 21.298M)
                                                       Fri Oct 29 13:45:56 2021




          FINAL HEAT OF FORMATION =        -23.07582 KCAL/MOL =     -96.54924 KJ/MOL



          GRADIENT NORM           =          0.83836          =       0.25278 PER ATOM
          NO. OF FILLED LEVELS    =         10
          MOLECULAR WEIGHT        =         44.0962         POINT GROUP:  C2v 

          MOLECULAR DIMENSIONS (Angstroms)

            Atom       Atom       Distance
            H    10    H     5     4.33236
            H     7    H    11     2.81279
            H     8    H     6     2.76473


          SCF CALCULATIONS        =          1
 
          WALL-CLOCK TIME         =          0.086 SECONDS
          COMPUTATION TIME        =          0.082 SECONDS




   ATOM   CHEMICAL          X               Y               Z
  NUMBER   SYMBOL      (ANGSTROMS)     (ANGSTROMS)     (ANGSTROMS)
 
     1       C         -2.47938629  *   1.94891579  *   0.11190868  *
     2       C         -1.29827276  *   0.98387702  *   0.00729518  *
     3       C         -3.81010175  *   1.21964142  *  -0.07647847  *
     4       H         -1.38347707  *   0.16741450  *   0.73288952  *
     5       H         -0.34844936  *   1.49531165  *   0.19480817  *
     6       H         -1.23847661  *   0.53154082  *  -0.98851859  *
     7       H         -2.37857497  *   2.75130968  *  -0.64360323  *
     8       H         -2.46534850  *   2.45775798  *   1.09469749  *
     9       H         -3.85388474  *   0.71068126  *  -1.04535583  *
    10       H         -4.65461095  *   1.91488898  *  -0.02947366  *
    11       H         -3.96289721  *   0.46065065  *   0.69868957  *

                             CARTESIAN COORDINATES

   1    C       -2.479386294     1.948915792     0.111908676
   2    C       -1.298272763     0.983877020     0.007295183
   3    C       -3.810101751     1.219641420    -0.076478473
   4    H       -1.383477073     0.167414504     0.732889522
   5    H       -0.348449360     1.495311647     0.194808165
   6    H       -1.238476615     0.531540822    -0.988518590
   7    H       -2.378574965     2.751309683    -0.643603231
   8    H       -2.465348500     2.457757976     1.094697491
   9    H       -3.853884743     0.710681255    -1.045355833
  10    H       -4.654610952     1.914888983    -0.029473663
  11    H       -3.962897209     0.460650646     0.698689570


           Empirical Formula: C3 H8  =    11 atoms

          LOCALIZED MOLECULAR ORBITALS

           Occupied Set

  NUMBER OF CENTERS  LMO ENERGY     COMPOSITION OF ORBITALS 
                                    (AS PERCENT OF THE LMO)

   1    1.9768        -16.65279    C  1 56.51    H  7 43.19
   2    1.9768        -16.64928    C  1 56.51    H  8 43.19
   3    1.9723        -16.60674    C  2 56.77    H  5 42.98
   4    1.9723        -16.60235    C  3 56.77    H 10 42.98
   5    1.9683        -16.53954    C  2 57.02    H  4 42.77
   6    1.9683        -16.53849    C  3 57.02    H  9 42.77
   7    1.9681        -16.53140    C  3 57.01    H 11 42.79
   8    1.9681        -16.52874    C  2 57.01    H  6 42.79
   9    2.0079        -16.28938    C  2 50.70    C  1 49.09
  10    2.0079        -16.28332    C  3 50.70    C  1 49.09

          To print Virtual Set as well, use keyword "ALLVEC"



              NET ATOMIC CHARGES AND DIPOLE CONTRIBUTIONS

  ATOM NO.   TYPE          CHARGE      No. of ELECS.   s-Pop       p-Pop       
    1          C          -0.236353        4.2364     1.05013     3.18622
    2          C          -0.436759        4.4368     1.05190     3.38485
    3          C          -0.436757        4.4368     1.05195     3.38480
    4          H           0.142331        0.8577     0.85767
    5          H           0.138392        0.8616     0.86161
    6          H           0.141754        0.8582     0.85825
    7          H           0.132487        0.8675     0.86751
    8          H           0.132471        0.8675     0.86753
    9          H           0.142200        0.8578     0.85780
   10          H           0.138381        0.8616     0.86162
   11          H           0.141854        0.8581     0.85815
 DIPOLE           X         Y         Z       TOTAL
 POINT-CHG.     0.002     0.022     0.005     0.023
 HYBRID        -0.007    -0.075    -0.013     0.077
 SUM           -0.005    -0.053    -0.008     0.054


          ATOMIC ORBITAL ELECTRON POPULATIONS

     Atom    s        px        py        pz   
    1  C   1.05013   0.97730   1.05460   1.15432
    2  C   1.05190   1.08911   1.12228   1.17346
    3  C   1.05195   1.06958   1.14275   1.17247
    4  H   0.85767
    5  H   0.86161
    6  H   0.85825
    7  H   0.86751
    8  H   0.86753
    9  H   0.85780
   10  H   0.86162
   11  H   0.85815
 *******************************************************************************
 ** Cite this program as: MOPAC2016, Version: 21.298M, James J. P. Stewart,   **
 **                           web-site: HTTP://OpenMOPAC.net.                 **
 *******************************************************************************
 **                                                                           **
 **                                MOPAC2016                                  **
 **                                                                           **
 *******************************************************************************

                              PM7 CALCULATION RESULTS

 *******************************************************************************
 *  CALCULATION DONE:                                Fri Oct 29 13:45:56 2021  *
 *  MOZYME     - USE LOCALIZED M.O.s IN SOLVING THE SCF EQUATIONS
 *  T=         - A TIME OF 172800.0 SECONDS REQUESTED
 *  DUMP=N     - RESTART FILE WRITTEN EVERY 7200.0 SECONDS REQUESTED
 *  VECTORS    - FINAL MOLECULAR ORBITALS TO BE PRINTED
 *******************************************************************************
VECTORS=(2,2) MOZYME
 Propane

   ATOM   CHEMICAL          X               Y               Z
  NUMBER   SYMBOL      (ANGSTROMS)     (ANGSTROMS)     (ANGSTROMS)
 
     1       C         -2.47938629  *   1.94891579  *   0.11190868  *
     2       C         -1.29827276  *   0.98387702  *   0.00729518  *
     3       C         -3.81010175  *   1.21964142  *  -0.07647847  *
     4       H         -1.38347707  *   0.16741450  *   0.73288952  *
     5       H         -0.34844936  *   1.49531165  *   0.19480817  *
     6       H         -1.23847661  *   0.53154082  *  -0.98851859  *
     7       H         -2.37857497  *   2.75130968  *  -0.64360323  *
     8       H         -2.46534850  *   2.45775798  *   1.09469749  *
     9       H         -3.85388474  *   0.71068126  *  -1.04535583  *
    10       H         -4.65461095  *   1.91488898  *  -0.02947366  *
    11       H         -3.96289721  *   0.46065065  *   0.69868957  *
 


          CARTESIAN COORDINATES 

    NO.       ATOM           X           Y           Z

     1         C         -2.4794      1.9489      0.1119
     2         C         -1.2983      0.9839      0.0073
     3         C         -3.8101      1.2196     -0.0765
     4         H         -1.3835      0.1674      0.7329
     5         H         -0.3484      1.4953      0.1948
     6         H         -1.2385      0.5315     -0.9885
     7         H         -2.3786      2.7513     -0.6436
     8         H         -2.4653      2.4578      1.0947
     9         H         -3.8539      0.7107     -1.0454
    10         H         -4.6546      1.9149     -0.0295
    11         H         -3.9629      0.4607      0.6987

 General Reference for PM7:
 "Optimization of Parameters for Semiempirical Methods VI: More Modifications to the 
 NDDO Approximations and Re-optimization of Parameters", J. J. P. Stewart, J. Mol. Mod., 1:32, 19 (2013)
 https://link.springer.com/article/10.1007/s00894-012-1667-x

           Empirical Formula: C3 H8  =    11 atoms



      MOLECULAR POINT GROUP   :   C2v 

          NO CHARGES FOUND.

          COMPUTED CHARGE ON SYSTEM: +0

          Geometry optimization using EF

     GRADIENT =  0.83836 IS LESS THAN CUTOFF =  1.00000



 -------------------------------------------------------------------------------
 VECTORS=(2,2) MOZYME
 Propane



     GRADIENTS WERE INITIALLY ACCEPTABLY SMALL                
     SCF FIELD WAS ACHIEVED                                   


                              PM7 CALCULATION
                                                       MOPAC2016 (Version: 21.298M)
                                                       Fri Oct 29 13:45:56 2021




          FINAL HEAT OF FORMATION =        -23.07582 KCAL/MOL =     -96.54924 KJ/MOL



          GRADIENT NORM           =          0.83836          =       0.25278 PER ATOM
          NO. OF FILLED LEVELS    =         10
          MOLECULAR WEIGHT        =         44.0962         POINT GROUP:  C2v 

          MOLECULAR DIMENSIONS (Angstroms)

            Atom       Atom       Distance
            H    10    H     5     4.33236
            H     7    H    11     2.81279
            H     8    H     6     2.76473


          SCF CALCULATIONS        =          1
 
          WALL-CLOCK TIME         =          0.098 SECONDS
          COMPUTATION TIME        =          0.096 SECONDS




   ATOM   CHEMICAL          X               Y               Z
  NUMBER   SYMBOL      (ANGSTROMS)     (ANGSTROMS)     (ANGSTROMS)
 
     1       C         -2.47938629  *   1.94891579  *   0.11190868  *
     2       C         -1.29827276  *   0.98387702  *   0.00729518  *
     3       C         -3.81010175  *   1.21964142  *  -0.07647847  *
     4       H         -1.38347707  *   0.16741450  *   0.73288952  *
     5       H         -0.34844936  *   1.49531165  *   0.19480817  *
     6       H         -1.23847661  *   0.53154082  *  -0.98851859  *
     7       H         -2.37857497  *   2.75130968  *  -0.64360323  *
     8       H         -2.46534850  *   2.45775798  *   1.09469749  *
     9       H         -3.85388474  *   0.71068126  *  -1.04535583  *
    10       H         -4.65461095  *   1.91488898  *  -0.02947366  *
    11       H         -3.96289721  *   0.46065065  *   0.69868957  *

                             CARTESIAN COORDINATES

   1    C       -2.479386294     1.948915792     0.111908676
   2    C       -1.298272763     0.983877020     0.007295183
   3    C       -3.810101751     1.219641420    -0.076478473
   4    H       -1.383477073     0.167414504     0.732889522
   5    H       -0.348449360     1.495311647     0.194808165
   6    H       -1.238476615     0.531540822    -0.988518590
   7    H       -2.378574965     2.751309683    -0.643603231
   8    H       -2.465348500     2.457757976     1.094697491
   9    H       -3.853884743     0.710681255    -1.045355833
  10    H       -4.654610952     1.914888983    -0.029473663
  11    H       -3.962897209     0.460650646     0.698689570


           Empirical Formula: C3 H8  =    11 atoms

          LOCALIZED MOLECULAR ORBITALS

           Occupied Set

  NUMBER OF CENTERS  LMO ENERGY     COMPOSITION OF ORBITALS 
                                    (AS PERCENT OF THE LMO)

   1    1.9768        -16.65279    C  1 56.51    H  7 43.19
   2    1.9768        -16.64928    C  1 56.51    H  8 43.19
   3    1.9723        -16.60674    C  2 56.77    H  5 42.98
   4    1.9723        -16.60235    C  3 56.77    H 10 42.98
   5    1.9683        -16.53954    C  2 57.02    H  4 42.77
   6    1.9683        -16.53849    C  3 57.02    H  9 42.77
   7    1.9681        -16.53140    C  3 57.01    H 11 42.79
   8    1.9681        -16.52874    C  2 57.01    H  6 42.79
   9    2.0079        -16.28938    C  2 50.70    C  1 49.09
  10    2.0079        -16.28332    C  3 50.70    C  1 49.09

          To print Virtual Set as well, use keyword "ALLVEC"



              NET ATOMIC CHARGES AND DIPOLE CONTRIBUTIONS

  ATOM NO.   TYPE          CHARGE      No. of ELECS.   s-Pop       p-Pop       
    1          C          -0.236353        4.2364     1.05013     3.18622
    2          C          -0.436759        4.4368     1.05190     3.38485
    3          C          -0.436757        4.4368     1.05195     3.38480
    4          H           0.142331        0.8577     0.85767
    5          H           0.138392        0.8616     0.86161
    6          H           0.141754        0.8582     0.85825
    7          H           0.132487        0.8675     0.86751
    8          H           0.132471        0.8675     0.86753
    9          H           0.142200        0.8578     0.85780
   10          H           0.138381        0.8616     0.86162
   11          H           0.141854        0.8581     0.85815
 DIPOLE           X         Y         Z       TOTAL
 POINT-CHG.     0.002     0.022     0.005     0.023
 HYBRID        -0.007    -0.075    -0.013     0.077
 SUM           -0.005    -0.053    -0.008     0.054


          ATOMIC ORBITAL ELECTRON POPULATIONS

     Atom    s        px        py        pz   
    1  C   1.05013   0.97730   1.05460   1.15432
    2  C   1.05190   1.08911   1.12228   1.17346
    3  C   1.05195   1.06958   1.14275   1.17247
    4  H   0.85767
    5  H   0.86161
    6  H   0.85825
    7  H   0.86751
    8  H   0.86753
    9  H   0.85780
   10  H   0.86162
   11  H   0.85815

 **********************
 *                    *
 * JOB ENDED NORMALLY *
 *                    *
 **********************



 TOTAL JOB TIME:             0.50 SECONDS

 == MOPAC DONE ==
